n -t * -s 0  -x 357 -y 618 -Z 0 -z 20  -v circle -c green
n -t * -s 1  -x 682 -y 621 -Z 0 -z 20  -v circle -c green
n -t * -s 2  -x 856 -y 626 -Z 0 -z 20  -v circle -c green
n -t * -s 3  -x 1059 -y 608 -Z 0 -z 20  -v circle -c green
n -t * -s 4  -x 489 -y 629 -Z 0 -z 20  -v circle -c green
n -t * -s 5  -x 439 -y 490 -Z 0 -z 20  -v circle -c green
n -t * -s 6  -x 593 -y 355 -Z 0 -z 20  -v circle -c green
n -t * -s 7  -x 758 -y 428 -Z 0 -z 20  -v circle -c green
n -t * -s 8  -x 971 -y 462 -Z 0 -z 20  -v circle -c green
n -t * -s 9  -x 919 -y 310 -Z 0 -z 20  -v circle -c green
n -t * -s 10  -x 1161 -y 380 -Z 0 -z 20  -v circle -c green
n -t * -s 11  -x 1249 -y 502 -Z 0 -z 20  -v circle -c green
n -t * -s 12  -x 1265 -y 652 -Z 0 -z 20  -v circle -c green
n -t * -s 13  -x 1048 -y 241 -Z 0 -z 20  -v circle -c green
n -t * -s 14  -x 423 -y 354 -Z 0 -z 20  -v circle -c green
n -t * -s 15  -x 628 -y 514 -Z 0 -z 20  -v circle -c green
n -t * -s 16  -x 779 -y 241 -Z 0 -z 20  -v circle -c green
n -t * -s 17  -x 520 -y 190 -Z 0 -z 20  -v circle -c green
V -t * -v 1.0a5 -a 0
W -t * -x 1505 -y 600
A -t * -n 1 -p 0 -o 0x7fffffff -c 30 -a 1
A -t * -h 1 -m 1073741823 -s 0
+ -t 0.036479607 -s 0 -d -1 -p message -e 32 -c 2 -a 0 -i 0 -k RTR 
- -t 0.036479607 -s 0 -d -1 -p message -e 32 -c 2 -a 0 -i 0 -k RTR
h -t 0.036479607 -s 0 -d -1 -p message -e 32 -c 2 -a 0 -i 0 -k RTR
+ -t 0.036774607 -s 0 -d -1 -p message -e 90 -c 2 -a 0 -i 0 -k MAC 
- -t 0.036774607 -s 0 -d -1 -p message -e 90 -c 2 -a 0 -i 0 -k MAC
h -t 0.036774607 -s 0 -d -1 -p message -e 90 -c 2 -a 0 -i 0 -k MAC
r -t 0.037495048 -s 4 -d -1 -p message -e 32 -c 2 -a 0 -i 0 -k MAC
r -t 0.037495114 -s 5 -d -1 -p message -e 32 -c 2 -a 0 -i 0 -k MAC
r -t 0.037520048 -s 4 -d -1 -p message -e 32 -c 2 -a 0 -i 0 -k RTR
r -t 0.037520114 -s 5 -d -1 -p message -e 32 -c 2 -a 0 -i 0 -k RTR
+ -t 0.090775603 -s 11 -d -1 -p message -e 32 -c 2 -a 0 -i 1 -k RTR 
- -t 0.090775603 -s 11 -d -1 -p message -e 32 -c 2 -a 0 -i 1 -k RTR
h -t 0.090775603 -s 11 -d -1 -p message -e 32 -c 2 -a 0 -i 1 -k RTR
+ -t 0.091030603 -s 11 -d -1 -p message -e 90 -c 2 -a 0 -i 1 -k MAC 
- -t 0.091030603 -s 11 -d -1 -p message -e 90 -c 2 -a 0 -i 1 -k MAC
h -t 0.091030603 -s 11 -d -1 -p message -e 90 -c 2 -a 0 -i 1 -k MAC
r -t 0.091751105 -s 10 -d -1 -p message -e 32 -c 2 -a 0 -i 1 -k MAC
r -t 0.091751106 -s 12 -d -1 -p message -e 32 -c 2 -a 0 -i 1 -k MAC
r -t 0.091751329 -s 3 -d -1 -p message -e 32 -c 2 -a 0 -i 1 -k MAC
r -t 0.091776105 -s 10 -d -1 -p message -e 32 -c 2 -a 0 -i 1 -k RTR
r -t 0.091776106 -s 12 -d -1 -p message -e 32 -c 2 -a 0 -i 1 -k RTR
r -t 0.091776329 -s 3 -d -1 -p message -e 32 -c 2 -a 0 -i 1 -k RTR
+ -t 0.184643595 -s 1 -d -1 -p message -e 32 -c 2 -a 0 -i 2 -k RTR 
- -t 0.184643595 -s 1 -d -1 -p message -e 32 -c 2 -a 0 -i 2 -k RTR
h -t 0.184643595 -s 1 -d -1 -p message -e 32 -c 2 -a 0 -i 2 -k RTR
+ -t 0.185078595 -s 1 -d -1 -p message -e 90 -c 2 -a 0 -i 2 -k MAC 
- -t 0.185078595 -s 1 -d -1 -p message -e 90 -c 2 -a 0 -i 2 -k MAC
h -t 0.185078595 -s 1 -d -1 -p message -e 90 -c 2 -a 0 -i 2 -k MAC
r -t 0.185798994 -s 15 -d -1 -p message -e 32 -c 2 -a 0 -i 2 -k MAC
r -t 0.185799175 -s 2 -d -1 -p message -e 32 -c 2 -a 0 -i 2 -k MAC
r -t 0.185799239 -s 4 -d -1 -p message -e 32 -c 2 -a 0 -i 2 -k MAC
r -t 0.185799286 -s 7 -d -1 -p message -e 32 -c 2 -a 0 -i 2 -k MAC
r -t 0.185823994 -s 15 -d -1 -p message -e 32 -c 2 -a 0 -i 2 -k RTR
r -t 0.185824175 -s 2 -d -1 -p message -e 32 -c 2 -a 0 -i 2 -k RTR
r -t 0.185824239 -s 4 -d -1 -p message -e 32 -c 2 -a 0 -i 2 -k RTR
r -t 0.185824286 -s 7 -d -1 -p message -e 32 -c 2 -a 0 -i 2 -k RTR
+ -t 0.195051199 -s 17 -d -1 -p message -e 32 -c 2 -a 0 -i 3 -k RTR 
- -t 0.195051199 -s 17 -d -1 -p message -e 32 -c 2 -a 0 -i 3 -k RTR
h -t 0.195051199 -s 17 -d -1 -p message -e 32 -c 2 -a 0 -i 3 -k RTR
+ -t 0.195266199 -s 17 -d -1 -p message -e 90 -c 2 -a 0 -i 3 -k MAC 
- -t 0.195266199 -s 17 -d -1 -p message -e 90 -c 2 -a 0 -i 3 -k MAC
h -t 0.195266199 -s 17 -d -1 -p message -e 90 -c 2 -a 0 -i 3 -k MAC
r -t 0.195986800 -s 6 -d -1 -p message -e 32 -c 2 -a 0 -i 3 -k MAC
r -t 0.195986834 -s 14 -d -1 -p message -e 32 -c 2 -a 0 -i 3 -k MAC
r -t 0.196011800 -s 6 -d -1 -p message -e 32 -c 2 -a 0 -i 3 -k RTR
r -t 0.196011834 -s 14 -d -1 -p message -e 32 -c 2 -a 0 -i 3 -k RTR
+ -t 0.228708482 -s 13 -d -1 -p message -e 32 -c 2 -a 0 -i 4 -k RTR 
- -t 0.228708482 -s 13 -d -1 -p message -e 32 -c 2 -a 0 -i 4 -k RTR
h -t 0.228708482 -s 13 -d -1 -p message -e 32 -c 2 -a 0 -i 4 -k RTR
+ -t 0.228883482 -s 13 -d -1 -p message -e 90 -c 2 -a 0 -i 4 -k MAC 
- -t 0.228883482 -s 13 -d -1 -p message -e 90 -c 2 -a 0 -i 4 -k MAC
h -t 0.228883482 -s 13 -d -1 -p message -e 90 -c 2 -a 0 -i 4 -k MAC
r -t 0.229603970 -s 9 -d -1 -p message -e 32 -c 2 -a 0 -i 4 -k MAC
r -t 0.229604079 -s 10 -d -1 -p message -e 32 -c 2 -a 0 -i 4 -k MAC
r -t 0.229604262 -s 8 -d -1 -p message -e 32 -c 2 -a 0 -i 4 -k MAC
r -t 0.229628970 -s 9 -d -1 -p message -e 32 -c 2 -a 0 -i 4 -k RTR
r -t 0.229629079 -s 10 -d -1 -p message -e 32 -c 2 -a 0 -i 4 -k RTR
r -t 0.229629262 -s 8 -d -1 -p message -e 32 -c 2 -a 0 -i 4 -k RTR
+ -t 0.337753463 -s 10 -d -1 -p message -e 32 -c 2 -a 0 -i 5 -k RTR 
- -t 0.337753463 -s 10 -d -1 -p message -e 32 -c 2 -a 0 -i 5 -k RTR
h -t 0.337753463 -s 10 -d -1 -p message -e 32 -c 2 -a 0 -i 5 -k RTR
+ -t 0.338408463 -s 10 -d -1 -p message -e 90 -c 2 -a 0 -i 5 -k MAC 
- -t 0.338408463 -s 10 -d -1 -p message -e 90 -c 2 -a 0 -i 5 -k MAC
h -t 0.338408463 -s 10 -d -1 -p message -e 90 -c 2 -a 0 -i 5 -k MAC
r -t 0.339128964 -s 11 -d -1 -p message -e 32 -c 2 -a 0 -i 5 -k MAC
r -t 0.339129060 -s 13 -d -1 -p message -e 32 -c 2 -a 0 -i 5 -k MAC
r -t 0.339129153 -s 8 -d -1 -p message -e 32 -c 2 -a 0 -i 5 -k MAC
r -t 0.339129295 -s 3 -d -1 -p message -e 32 -c 2 -a 0 -i 5 -k MAC
r -t 0.339153964 -s 11 -d -1 -p message -e 32 -c 2 -a 0 -i 5 -k RTR
r -t 0.339154060 -s 13 -d -1 -p message -e 32 -c 2 -a 0 -i 5 -k RTR
r -t 0.339154153 -s 8 -d -1 -p message -e 32 -c 2 -a 0 -i 5 -k RTR
r -t 0.339154295 -s 3 -d -1 -p message -e 32 -c 2 -a 0 -i 5 -k RTR
+ -t 0.349718591 -s 16 -d -1 -p message -e 32 -c 2 -a 0 -i 6 -k RTR 
- -t 0.349718591 -s 16 -d -1 -p message -e 32 -c 2 -a 0 -i 6 -k RTR
h -t 0.349718591 -s 16 -d -1 -p message -e 32 -c 2 -a 0 -i 6 -k RTR
+ -t 0.350293591 -s 16 -d -1 -p message -e 90 -c 2 -a 0 -i 6 -k MAC 
- -t 0.350293591 -s 16 -d -1 -p message -e 90 -c 2 -a 0 -i 6 -k MAC
h -t 0.350293591 -s 16 -d -1 -p message -e 90 -c 2 -a 0 -i 6 -k MAC
r -t 0.351014111 -s 9 -d -1 -p message -e 32 -c 2 -a 0 -i 6 -k MAC
r -t 0.351014218 -s 7 -d -1 -p message -e 32 -c 2 -a 0 -i 6 -k MAC
r -t 0.351014318 -s 6 -d -1 -p message -e 32 -c 2 -a 0 -i 6 -k MAC
r -t 0.351039111 -s 9 -d -1 -p message -e 32 -c 2 -a 0 -i 6 -k RTR
r -t 0.351039218 -s 7 -d -1 -p message -e 32 -c 2 -a 0 -i 6 -k RTR
r -t 0.351039318 -s 6 -d -1 -p message -e 32 -c 2 -a 0 -i 6 -k RTR
+ -t 0.475889743 -s 6 -d -1 -p message -e 32 -c 2 -a 0 -i 7 -k RTR 
- -t 0.475889743 -s 6 -d -1 -p message -e 32 -c 2 -a 0 -i 7 -k RTR
h -t 0.475889743 -s 6 -d -1 -p message -e 32 -c 2 -a 0 -i 7 -k RTR
+ -t 0.476444743 -s 6 -d -1 -p message -e 90 -c 2 -a 0 -i 7 -k MAC 
- -t 0.476444743 -s 6 -d -1 -p message -e 90 -c 2 -a 0 -i 7 -k MAC
h -t 0.476444743 -s 6 -d -1 -p message -e 90 -c 2 -a 0 -i 7 -k MAC
r -t 0.477165285 -s 15 -d -1 -p message -e 32 -c 2 -a 0 -i 7 -k MAC
r -t 0.477165309 -s 14 -d -1 -p message -e 32 -c 2 -a 0 -i 7 -k MAC
r -t 0.477165344 -s 17 -d -1 -p message -e 32 -c 2 -a 0 -i 7 -k MAC
r -t 0.477165344 -s 7 -d -1 -p message -e 32 -c 2 -a 0 -i 7 -k MAC
r -t 0.477165425 -s 5 -d -1 -p message -e 32 -c 2 -a 0 -i 7 -k MAC
r -t 0.477165470 -s 16 -d -1 -p message -e 32 -c 2 -a 0 -i 7 -k MAC
r -t 0.477190285 -s 15 -d -1 -p message -e 32 -c 2 -a 0 -i 7 -k RTR
r -t 0.477190309 -s 14 -d -1 -p message -e 32 -c 2 -a 0 -i 7 -k RTR
r -t 0.477190344 -s 17 -d -1 -p message -e 32 -c 2 -a 0 -i 7 -k RTR
r -t 0.477190344 -s 7 -d -1 -p message -e 32 -c 2 -a 0 -i 7 -k RTR
r -t 0.477190425 -s 5 -d -1 -p message -e 32 -c 2 -a 0 -i 7 -k RTR
r -t 0.477190470 -s 16 -d -1 -p message -e 32 -c 2 -a 0 -i 7 -k RTR
+ -t 0.626924672 -s 8 -d -1 -p message -e 32 -c 2 -a 0 -i 8 -k RTR 
- -t 0.626924672 -s 8 -d -1 -p message -e 32 -c 2 -a 0 -i 8 -k RTR
h -t 0.626924672 -s 8 -d -1 -p message -e 32 -c 2 -a 0 -i 8 -k RTR
+ -t 0.627079672 -s 8 -d -1 -p message -e 90 -c 2 -a 0 -i 8 -k MAC 
- -t 0.627079672 -s 8 -d -1 -p message -e 90 -c 2 -a 0 -i 8 -k MAC
h -t 0.627079672 -s 8 -d -1 -p message -e 90 -c 2 -a 0 -i 8 -k MAC
r -t 0.627800208 -s 9 -d -1 -p message -e 32 -c 2 -a 0 -i 8 -k MAC
r -t 0.627800241 -s 3 -d -1 -p message -e 32 -c 2 -a 0 -i 8 -k MAC
r -t 0.627800340 -s 2 -d -1 -p message -e 32 -c 2 -a 0 -i 8 -k MAC
r -t 0.627800362 -s 10 -d -1 -p message -e 32 -c 2 -a 0 -i 8 -k MAC
r -t 0.627800391 -s 7 -d -1 -p message -e 32 -c 2 -a 0 -i 8 -k MAC
r -t 0.627800453 -s 13 -d -1 -p message -e 32 -c 2 -a 0 -i 8 -k MAC
r -t 0.627825208 -s 9 -d -1 -p message -e 32 -c 2 -a 0 -i 8 -k RTR
r -t 0.627825241 -s 3 -d -1 -p message -e 32 -c 2 -a 0 -i 8 -k RTR
r -t 0.627825340 -s 2 -d -1 -p message -e 32 -c 2 -a 0 -i 8 -k RTR
r -t 0.627825362 -s 10 -d -1 -p message -e 32 -c 2 -a 0 -i 8 -k RTR
r -t 0.627825391 -s 7 -d -1 -p message -e 32 -c 2 -a 0 -i 8 -k RTR
r -t 0.627825453 -s 13 -d -1 -p message -e 32 -c 2 -a 0 -i 8 -k RTR
+ -t 0.631471940 -s 4 -d -1 -p message -e 32 -c 2 -a 0 -i 9 -k RTR 
- -t 0.631471940 -s 4 -d -1 -p message -e 32 -c 2 -a 0 -i 9 -k RTR
h -t 0.631471940 -s 4 -d -1 -p message -e 32 -c 2 -a 0 -i 9 -k RTR
+ -t 0.631546940 -s 4 -d -1 -p message -e 90 -c 2 -a 0 -i 9 -k MAC 
- -t 0.631546940 -s 4 -d -1 -p message -e 90 -c 2 -a 0 -i 9 -k MAC
h -t 0.631546940 -s 4 -d -1 -p message -e 90 -c 2 -a 0 -i 9 -k MAC
r -t 0.632267382 -s 0 -d -1 -p message -e 32 -c 2 -a 0 -i 9 -k MAC
r -t 0.632267432 -s 5 -d -1 -p message -e 32 -c 2 -a 0 -i 9 -k MAC
r -t 0.632267541 -s 15 -d -1 -p message -e 32 -c 2 -a 0 -i 9 -k MAC
r -t 0.632267584 -s 1 -d -1 -p message -e 32 -c 2 -a 0 -i 9 -k MAC
r -t 0.632292382 -s 0 -d -1 -p message -e 32 -c 2 -a 0 -i 9 -k RTR
r -t 0.632292432 -s 5 -d -1 -p message -e 32 -c 2 -a 0 -i 9 -k RTR
r -t 0.632292541 -s 15 -d -1 -p message -e 32 -c 2 -a 0 -i 9 -k RTR
r -t 0.632292584 -s 1 -d -1 -p message -e 32 -c 2 -a 0 -i 9 -k RTR
+ -t 0.856781634 -s 15 -d -1 -p message -e 32 -c 2 -a 0 -i 10 -k RTR 
- -t 0.856781634 -s 15 -d -1 -p message -e 32 -c 2 -a 0 -i 10 -k RTR
h -t 0.856781634 -s 15 -d -1 -p message -e 32 -c 2 -a 0 -i 10 -k RTR
+ -t 0.856876634 -s 15 -d -1 -p message -e 90 -c 2 -a 0 -i 10 -k MAC 
- -t 0.856876634 -s 15 -d -1 -p message -e 90 -c 2 -a 0 -i 10 -k MAC
h -t 0.856876634 -s 15 -d -1 -p message -e 90 -c 2 -a 0 -i 10 -k MAC
r -t 0.857597034 -s 1 -d -1 -p message -e 32 -c 2 -a 0 -i 10 -k MAC
r -t 0.857597154 -s 7 -d -1 -p message -e 32 -c 2 -a 0 -i 10 -k MAC
r -t 0.857597177 -s 6 -d -1 -p message -e 32 -c 2 -a 0 -i 10 -k MAC
r -t 0.857597236 -s 4 -d -1 -p message -e 32 -c 2 -a 0 -i 10 -k MAC
r -t 0.857597270 -s 5 -d -1 -p message -e 32 -c 2 -a 0 -i 10 -k MAC
r -t 0.857622034 -s 1 -d -1 -p message -e 32 -c 2 -a 0 -i 10 -k RTR
r -t 0.857622154 -s 7 -d -1 -p message -e 32 -c 2 -a 0 -i 10 -k RTR
r -t 0.857622177 -s 6 -d -1 -p message -e 32 -c 2 -a 0 -i 10 -k RTR
r -t 0.857622236 -s 4 -d -1 -p message -e 32 -c 2 -a 0 -i 10 -k RTR
r -t 0.857622270 -s 5 -d -1 -p message -e 32 -c 2 -a 0 -i 10 -k RTR
+ -t 0.884134043 -s 2 -d -1 -p message -e 32 -c 2 -a 0 -i 11 -k RTR 
- -t 0.884134043 -s 2 -d -1 -p message -e 32 -c 2 -a 0 -i 11 -k RTR
h -t 0.884134043 -s 2 -d -1 -p message -e 32 -c 2 -a 0 -i 11 -k RTR
+ -t 0.884509043 -s 2 -d -1 -p message -e 90 -c 2 -a 0 -i 11 -k MAC 
- -t 0.884509043 -s 2 -d -1 -p message -e 90 -c 2 -a 0 -i 11 -k MAC
h -t 0.884509043 -s 2 -d -1 -p message -e 90 -c 2 -a 0 -i 11 -k MAC
r -t 0.885229623 -s 1 -d -1 -p message -e 32 -c 2 -a 0 -i 11 -k MAC
r -t 0.885229710 -s 8 -d -1 -p message -e 32 -c 2 -a 0 -i 11 -k MAC
r -t 0.885229722 -s 3 -d -1 -p message -e 32 -c 2 -a 0 -i 11 -k MAC
r -t 0.885229779 -s 7 -d -1 -p message -e 32 -c 2 -a 0 -i 11 -k MAC
r -t 0.885254623 -s 1 -d -1 -p message -e 32 -c 2 -a 0 -i 11 -k RTR
r -t 0.885254710 -s 8 -d -1 -p message -e 32 -c 2 -a 0 -i 11 -k RTR
r -t 0.885254722 -s 3 -d -1 -p message -e 32 -c 2 -a 0 -i 11 -k RTR
r -t 0.885254779 -s 7 -d -1 -p message -e 32 -c 2 -a 0 -i 11 -k RTR
n -t 1.000000 -s 7 -x 758.000000 -y 428.000000 -U -8.958117 -V -4.444337 -T 28.800694
+ -t 1.000000000 -s 5 -d -1 -p tcp -e 40 -c 2 -a 0 -i 12 -k AGT 
- -t 1.000000000 -s 5 -d -1 -p tcp -e 40 -c 2 -a 0 -i 12 -k AGT
h -t 1.000000000 -s 5 -d -1 -p tcp -e 40 -c 2 -a 0 -i 12 -k AGT
+ -t 1.278231621 -s 7 -d -1 -p message -e 32 -c 2 -a 0 -i 13 -k RTR 
- -t 1.278231621 -s 7 -d -1 -p message -e 32 -c 2 -a 0 -i 13 -k RTR
h -t 1.278231621 -s 7 -d -1 -p message -e 32 -c 2 -a 0 -i 13 -k RTR
+ -t 1.278506621 -s 7 -d -1 -p message -e 90 -c 2 -a 0 -i 13 -k MAC 
- -t 1.278506621 -s 7 -d -1 -p message -e 90 -c 2 -a 0 -i 13 -k MAC
h -t 1.278506621 -s 7 -d -1 -p message -e 90 -c 2 -a 0 -i 13 -k MAC
r -t 1.279227136 -s 15 -d -1 -p message -e 32 -c 2 -a 0 -i 13 -k MAC
r -t 1.279227213 -s 6 -d -1 -p message -e 32 -c 2 -a 0 -i 13 -k MAC
r -t 1.279227245 -s 16 -d -1 -p message -e 32 -c 2 -a 0 -i 13 -k MAC
r -t 1.279227290 -s 9 -d -1 -p message -e 32 -c 2 -a 0 -i 13 -k MAC
r -t 1.279227313 -s 1 -d -1 -p message -e 32 -c 2 -a 0 -i 13 -k MAC
r -t 1.279227348 -s 8 -d -1 -p message -e 32 -c 2 -a 0 -i 13 -k MAC
r -t 1.279227364 -s 2 -d -1 -p message -e 32 -c 2 -a 0 -i 13 -k MAC
r -t 1.279252136 -s 15 -d -1 -p message -e 32 -c 2 -a 0 -i 13 -k RTR
r -t 1.279252213 -s 6 -d -1 -p message -e 32 -c 2 -a 0 -i 13 -k RTR
r -t 1.279252245 -s 16 -d -1 -p message -e 32 -c 2 -a 0 -i 13 -k RTR
r -t 1.279252290 -s 9 -d -1 -p message -e 32 -c 2 -a 0 -i 13 -k RTR
r -t 1.279252313 -s 1 -d -1 -p message -e 32 -c 2 -a 0 -i 13 -k RTR
r -t 1.279252348 -s 8 -d -1 -p message -e 32 -c 2 -a 0 -i 13 -k RTR
r -t 1.279252364 -s 2 -d -1 -p message -e 32 -c 2 -a 0 -i 13 -k RTR
+ -t 1.284347519 -s 12 -d -1 -p message -e 32 -c 2 -a 0 -i 14 -k RTR 
- -t 1.284347519 -s 12 -d -1 -p message -e 32 -c 2 -a 0 -i 14 -k RTR
h -t 1.284347519 -s 12 -d -1 -p message -e 32 -c 2 -a 0 -i 14 -k RTR
+ -t 1.284622519 -s 12 -d -1 -p message -e 90 -c 2 -a 0 -i 14 -k MAC 
- -t 1.284622519 -s 12 -d -1 -p message -e 90 -c 2 -a 0 -i 14 -k MAC
h -t 1.284622519 -s 12 -d -1 -p message -e 90 -c 2 -a 0 -i 14 -k MAC
r -t 1.285343022 -s 11 -d -1 -p message -e 32 -c 2 -a 0 -i 14 -k MAC
r -t 1.285343221 -s 3 -d -1 -p message -e 32 -c 2 -a 0 -i 14 -k MAC
r -t 1.285368022 -s 11 -d -1 -p message -e 32 -c 2 -a 0 -i 14 -k RTR
r -t 1.285368221 -s 3 -d -1 -p message -e 32 -c 2 -a 0 -i 14 -k RTR
+ -t 1.605591325 -s 3 -d -1 -p message -e 32 -c 2 -a 0 -i 15 -k RTR 
- -t 1.605591325 -s 3 -d -1 -p message -e 32 -c 2 -a 0 -i 15 -k RTR
h -t 1.605591325 -s 3 -d -1 -p message -e 32 -c 2 -a 0 -i 15 -k RTR
+ -t 1.605786325 -s 3 -d -1 -p message -e 90 -c 2 -a 0 -i 15 -k MAC 
- -t 1.605786325 -s 3 -d -1 -p message -e 90 -c 2 -a 0 -i 15 -k MAC
h -t 1.605786325 -s 3 -d -1 -p message -e 90 -c 2 -a 0 -i 15 -k MAC
r -t 1.606506893 -s 8 -d -1 -p message -e 32 -c 2 -a 0 -i 15 -k MAC
r -t 1.606507004 -s 2 -d -1 -p message -e 32 -c 2 -a 0 -i 15 -k MAC
r -t 1.606507027 -s 12 -d -1 -p message -e 32 -c 2 -a 0 -i 15 -k MAC
r -t 1.606507050 -s 11 -d -1 -p message -e 32 -c 2 -a 0 -i 15 -k MAC
r -t 1.606507157 -s 10 -d -1 -p message -e 32 -c 2 -a 0 -i 15 -k MAC
r -t 1.606531893 -s 8 -d -1 -p message -e 32 -c 2 -a 0 -i 15 -k RTR
r -t 1.606532004 -s 2 -d -1 -p message -e 32 -c 2 -a 0 -i 15 -k RTR
r -t 1.606532027 -s 12 -d -1 -p message -e 32 -c 2 -a 0 -i 15 -k RTR
r -t 1.606532050 -s 11 -d -1 -p message -e 32 -c 2 -a 0 -i 15 -k RTR
r -t 1.606532157 -s 10 -d -1 -p message -e 32 -c 2 -a 0 -i 15 -k RTR
+ -t 1.640972221 -s 5 -d -1 -p message -e 32 -c 2 -a 0 -i 16 -k RTR 
- -t 1.640972221 -s 5 -d -1 -p message -e 32 -c 2 -a 0 -i 16 -k RTR
h -t 1.640972221 -s 5 -d -1 -p message -e 32 -c 2 -a 0 -i 16 -k RTR
+ -t 1.641647221 -s 5 -d -1 -p message -e 90 -c 2 -a 0 -i 16 -k MAC 
- -t 1.641647221 -s 5 -d -1 -p message -e 90 -c 2 -a 0 -i 16 -k MAC
h -t 1.641647221 -s 5 -d -1 -p message -e 90 -c 2 -a 0 -i 16 -k MAC
r -t 1.642367678 -s 14 -d -1 -p message -e 32 -c 2 -a 0 -i 16 -k MAC
r -t 1.642367714 -s 4 -d -1 -p message -e 32 -c 2 -a 0 -i 16 -k MAC
r -t 1.642367728 -s 0 -d -1 -p message -e 32 -c 2 -a 0 -i 16 -k MAC
r -t 1.642367857 -s 15 -d -1 -p message -e 32 -c 2 -a 0 -i 16 -k MAC
r -t 1.642367904 -s 6 -d -1 -p message -e 32 -c 2 -a 0 -i 16 -k MAC
r -t 1.642392678 -s 14 -d -1 -p message -e 32 -c 2 -a 0 -i 16 -k RTR
r -t 1.642392714 -s 4 -d -1 -p message -e 32 -c 2 -a 0 -i 16 -k RTR
r -t 1.642392728 -s 0 -d -1 -p message -e 32 -c 2 -a 0 -i 16 -k RTR
r -t 1.642392857 -s 15 -d -1 -p message -e 32 -c 2 -a 0 -i 16 -k RTR
r -t 1.642392904 -s 6 -d -1 -p message -e 32 -c 2 -a 0 -i 16 -k RTR
+ -t 1.680484824 -s 9 -d -1 -p message -e 32 -c 2 -a 0 -i 17 -k RTR 
- -t 1.680484824 -s 9 -d -1 -p message -e 32 -c 2 -a 0 -i 17 -k RTR
h -t 1.680484824 -s 9 -d -1 -p message -e 32 -c 2 -a 0 -i 17 -k RTR
+ -t 1.680859824 -s 9 -d -1 -p message -e 90 -c 2 -a 0 -i 17 -k MAC 
- -t 1.680859824 -s 9 -d -1 -p message -e 90 -c 2 -a 0 -i 17 -k MAC
h -t 1.680859824 -s 9 -d -1 -p message -e 90 -c 2 -a 0 -i 17 -k MAC
r -t 1.681580312 -s 13 -d -1 -p message -e 32 -c 2 -a 0 -i 17 -k MAC
r -t 1.681580345 -s 16 -d -1 -p message -e 32 -c 2 -a 0 -i 17 -k MAC
r -t 1.681580360 -s 8 -d -1 -p message -e 32 -c 2 -a 0 -i 17 -k MAC
r -t 1.681580500 -s 7 -d -1 -p message -e 32 -c 2 -a 0 -i 17 -k MAC
r -t 1.681605312 -s 13 -d -1 -p message -e 32 -c 2 -a 0 -i 17 -k RTR
r -t 1.681605345 -s 16 -d -1 -p message -e 32 -c 2 -a 0 -i 17 -k RTR
r -t 1.681605360 -s 8 -d -1 -p message -e 32 -c 2 -a 0 -i 17 -k RTR
r -t 1.681605500 -s 7 -d -1 -p message -e 32 -c 2 -a 0 -i 17 -k RTR
+ -t 1.724916625 -s 14 -d -1 -p message -e 32 -c 2 -a 0 -i 18 -k RTR 
- -t 1.724916625 -s 14 -d -1 -p message -e 32 -c 2 -a 0 -i 18 -k RTR
h -t 1.724916625 -s 14 -d -1 -p message -e 32 -c 2 -a 0 -i 18 -k RTR
+ -t 1.725571625 -s 14 -d -1 -p message -e 90 -c 2 -a 0 -i 18 -k MAC 
- -t 1.725571625 -s 14 -d -1 -p message -e 90 -c 2 -a 0 -i 18 -k MAC
h -t 1.725571625 -s 14 -d -1 -p message -e 90 -c 2 -a 0 -i 18 -k MAC
r -t 1.726292081 -s 5 -d -1 -p message -e 32 -c 2 -a 0 -i 18 -k MAC
r -t 1.726292192 -s 6 -d -1 -p message -e 32 -c 2 -a 0 -i 18 -k MAC
r -t 1.726292260 -s 17 -d -1 -p message -e 32 -c 2 -a 0 -i 18 -k MAC
r -t 1.726317081 -s 5 -d -1 -p message -e 32 -c 2 -a 0 -i 18 -k RTR
r -t 1.726317192 -s 6 -d -1 -p message -e 32 -c 2 -a 0 -i 18 -k RTR
r -t 1.726317260 -s 17 -d -1 -p message -e 32 -c 2 -a 0 -i 18 -k RTR
+ -t 2.000000000 -s 14 -d -1 -p tcp -e 40 -c 2 -a 0 -i 19 -k AGT 
- -t 2.000000000 -s 14 -d -1 -p tcp -e 40 -c 2 -a 0 -i 19 -k AGT
h -t 2.000000000 -s 14 -d -1 -p tcp -e 40 -c 2 -a 0 -i 19 -k AGT
n -t 3.000000 -s 9 -x 919.000000 -y 310.000000 -U -29.834588 -V -3.146002 -T 19.071823
+ -t 4.000000000 -s 5 -d -1 -p tcp -e 40 -c 2 -a 0 -i 20 -k AGT 
- -t 4.000000000 -s 5 -d -1 -p tcp -e 40 -c 2 -a 0 -i 20 -k AGT
h -t 4.000000000 -s 5 -d -1 -p tcp -e 40 -c 2 -a 0 -i 20 -k AGT
+ -t 5.000000000 -s 14 -d -1 -p tcp -e 40 -c 2 -a 0 -i 21 -k AGT 
- -t 5.000000000 -s 14 -d -1 -p tcp -e 40 -c 2 -a 0 -i 21 -k AGT
h -t 5.000000000 -s 14 -d -1 -p tcp -e 40 -c 2 -a 0 -i 21 -k AGT
n -t 8.000000 -s 9 -x 769.827058 -y 294.269989 -U -6.295346 -V -13.615015 -T 14.268805
n -t 10.000000 -s 7 -x 677.376944 -y 388.000964 -U -17.052328 -V 24.682344 -T 4.537618
+ -t 10.000000000 -s 5 -d -1 -p tcp -e 40 -c 2 -a 0 -i 22 -k AGT 
- -t 10.000000000 -s 5 -d -1 -p tcp -e 40 -c 2 -a 0 -i 22 -k AGT
h -t 10.000000000 -s 5 -d -1 -p tcp -e 40 -c 2 -a 0 -i 22 -k AGT
+ -t 11.000000000 -s 14 -d -1 -p tcp -e 40 -c 2 -a 0 -i 23 -k AGT 
- -t 11.000000000 -s 14 -d -1 -p tcp -e 40 -c 2 -a 0 -i 23 -k AGT
h -t 11.000000000 -s 14 -d -1 -p tcp -e 40 -c 2 -a 0 -i 23 -k AGT
+ -t 12.040842193 -s 4 -d -1 -p message -e 32 -c 2 -a 0 -i 24 -k RTR 
- -t 12.040842193 -s 4 -d -1 -p message -e 32 -c 2 -a 0 -i 24 -k RTR
h -t 12.040842193 -s 4 -d -1 -p message -e 32 -c 2 -a 0 -i 24 -k RTR
+ -t 12.041357193 -s 4 -d -1 -p message -e 90 -c 2 -a 0 -i 24 -k MAC 
- -t 12.041357193 -s 4 -d -1 -p message -e 90 -c 2 -a 0 -i 24 -k MAC
h -t 12.041357193 -s 4 -d -1 -p message -e 90 -c 2 -a 0 -i 24 -k MAC
r -t 12.042077634 -s 0 -d -1 -p message -e 32 -c 2 -a 0 -i 24 -k MAC
r -t 12.042077685 -s 5 -d -1 -p message -e 32 -c 2 -a 0 -i 24 -k MAC
r -t 12.042077794 -s 15 -d -1 -p message -e 32 -c 2 -a 0 -i 24 -k MAC
r -t 12.042077837 -s 1 -d -1 -p message -e 32 -c 2 -a 0 -i 24 -k MAC
r -t 12.042078009 -s 7 -d -1 -p message -e 32 -c 2 -a 0 -i 24 -k MAC
r -t 12.042102634 -s 0 -d -1 -p message -e 32 -c 2 -a 0 -i 24 -k RTR
r -t 12.042102685 -s 5 -d -1 -p message -e 32 -c 2 -a 0 -i 24 -k RTR
r -t 12.042102794 -s 15 -d -1 -p message -e 32 -c 2 -a 0 -i 24 -k RTR
r -t 12.042102837 -s 1 -d -1 -p message -e 32 -c 2 -a 0 -i 24 -k RTR
r -t 12.042103009 -s 7 -d -1 -p message -e 32 -c 2 -a 0 -i 24 -k RTR
+ -t 12.044477012 -s 5 -d -1 -p message -e 32 -c 2 -a 0 -i 25 -k RTR 
- -t 12.044477012 -s 5 -d -1 -p message -e 32 -c 2 -a 0 -i 25 -k RTR
h -t 12.044477012 -s 5 -d -1 -p message -e 32 -c 2 -a 0 -i 25 -k RTR
+ -t 12.044672012 -s 5 -d -1 -p message -e 90 -c 2 -a 0 -i 25 -k MAC 
- -t 12.044672012 -s 5 -d -1 -p message -e 90 -c 2 -a 0 -i 25 -k MAC
h -t 12.044672012 -s 5 -d -1 -p message -e 90 -c 2 -a 0 -i 25 -k MAC
r -t 12.045392468 -s 14 -d -1 -p message -e 32 -c 2 -a 0 -i 25 -k MAC
r -t 12.045392504 -s 4 -d -1 -p message -e 32 -c 2 -a 0 -i 25 -k MAC
r -t 12.045392518 -s 0 -d -1 -p message -e 32 -c 2 -a 0 -i 25 -k MAC
r -t 12.045392647 -s 15 -d -1 -p message -e 32 -c 2 -a 0 -i 25 -k MAC
r -t 12.045392694 -s 6 -d -1 -p message -e 32 -c 2 -a 0 -i 25 -k MAC
r -t 12.045392711 -s 7 -d -1 -p message -e 32 -c 2 -a 0 -i 25 -k MAC
r -t 12.045417468 -s 14 -d -1 -p message -e 32 -c 2 -a 0 -i 25 -k RTR
r -t 12.045417504 -s 4 -d -1 -p message -e 32 -c 2 -a 0 -i 25 -k RTR
r -t 12.045417518 -s 0 -d -1 -p message -e 32 -c 2 -a 0 -i 25 -k RTR
r -t 12.045417647 -s 15 -d -1 -p message -e 32 -c 2 -a 0 -i 25 -k RTR
r -t 12.045417694 -s 6 -d -1 -p message -e 32 -c 2 -a 0 -i 25 -k RTR
r -t 12.045417711 -s 7 -d -1 -p message -e 32 -c 2 -a 0 -i 25 -k RTR
+ -t 12.091809608 -s 10 -d -1 -p message -e 32 -c 2 -a 0 -i 26 -k RTR 
- -t 12.091809608 -s 10 -d -1 -p message -e 32 -c 2 -a 0 -i 26 -k RTR
h -t 12.091809608 -s 10 -d -1 -p message -e 32 -c 2 -a 0 -i 26 -k RTR
+ -t 12.092244608 -s 10 -d -1 -p message -e 90 -c 2 -a 0 -i 26 -k MAC 
- -t 12.092244608 -s 10 -d -1 -p message -e 90 -c 2 -a 0 -i 26 -k MAC
h -t 12.092244608 -s 10 -d -1 -p message -e 90 -c 2 -a 0 -i 26 -k MAC
r -t 12.092965109 -s 11 -d -1 -p message -e 32 -c 2 -a 0 -i 26 -k MAC
r -t 12.092965205 -s 13 -d -1 -p message -e 32 -c 2 -a 0 -i 26 -k MAC
r -t 12.092965297 -s 8 -d -1 -p message -e 32 -c 2 -a 0 -i 26 -k MAC
r -t 12.092965440 -s 3 -d -1 -p message -e 32 -c 2 -a 0 -i 26 -k MAC
r -t 12.092990109 -s 11 -d -1 -p message -e 32 -c 2 -a 0 -i 26 -k RTR
r -t 12.092990205 -s 13 -d -1 -p message -e 32 -c 2 -a 0 -i 26 -k RTR
r -t 12.092990297 -s 8 -d -1 -p message -e 32 -c 2 -a 0 -i 26 -k RTR
r -t 12.092990440 -s 3 -d -1 -p message -e 32 -c 2 -a 0 -i 26 -k RTR
+ -t 12.094993454 -s 12 -d -1 -p message -e 32 -c 2 -a 0 -i 27 -k RTR 
- -t 12.094993454 -s 12 -d -1 -p message -e 32 -c 2 -a 0 -i 27 -k RTR
h -t 12.094993454 -s 12 -d -1 -p message -e 32 -c 2 -a 0 -i 27 -k RTR
+ -t 12.095488454 -s 12 -d -1 -p message -e 90 -c 2 -a 0 -i 27 -k MAC 
- -t 12.095488454 -s 12 -d -1 -p message -e 90 -c 2 -a 0 -i 27 -k MAC
h -t 12.095488454 -s 12 -d -1 -p message -e 90 -c 2 -a 0 -i 27 -k MAC
r -t 12.096208957 -s 11 -d -1 -p message -e 32 -c 2 -a 0 -i 27 -k MAC
r -t 12.096209157 -s 3 -d -1 -p message -e 32 -c 2 -a 0 -i 27 -k MAC
r -t 12.096233957 -s 11 -d -1 -p message -e 32 -c 2 -a 0 -i 27 -k RTR
r -t 12.096234157 -s 3 -d -1 -p message -e 32 -c 2 -a 0 -i 27 -k RTR
+ -t 12.100588903 -s 3 -d -1 -p message -e 32 -c 2 -a 0 -i 28 -k RTR 
- -t 12.100588903 -s 3 -d -1 -p message -e 32 -c 2 -a 0 -i 28 -k RTR
h -t 12.100588903 -s 3 -d -1 -p message -e 32 -c 2 -a 0 -i 28 -k RTR
+ -t 12.100983903 -s 3 -d -1 -p message -e 90 -c 2 -a 0 -i 28 -k MAC 
- -t 12.100983903 -s 3 -d -1 -p message -e 90 -c 2 -a 0 -i 28 -k MAC
h -t 12.100983903 -s 3 -d -1 -p message -e 90 -c 2 -a 0 -i 28 -k MAC
r -t 12.101704472 -s 8 -d -1 -p message -e 32 -c 2 -a 0 -i 28 -k MAC
r -t 12.101704583 -s 2 -d -1 -p message -e 32 -c 2 -a 0 -i 28 -k MAC
r -t 12.101704606 -s 12 -d -1 -p message -e 32 -c 2 -a 0 -i 28 -k MAC
r -t 12.101704629 -s 11 -d -1 -p message -e 32 -c 2 -a 0 -i 28 -k MAC
r -t 12.101704736 -s 10 -d -1 -p message -e 32 -c 2 -a 0 -i 28 -k MAC
r -t 12.101729472 -s 8 -d -1 -p message -e 32 -c 2 -a 0 -i 28 -k RTR
r -t 12.101729583 -s 2 -d -1 -p message -e 32 -c 2 -a 0 -i 28 -k RTR
r -t 12.101729606 -s 12 -d -1 -p message -e 32 -c 2 -a 0 -i 28 -k RTR
r -t 12.101729629 -s 11 -d -1 -p message -e 32 -c 2 -a 0 -i 28 -k RTR
r -t 12.101729736 -s 10 -d -1 -p message -e 32 -c 2 -a 0 -i 28 -k RTR
+ -t 12.190336901 -s 7 -d -1 -p message -e 32 -c 2 -a 0 -i 31 -k RTR 
- -t 12.190336901 -s 7 -d -1 -p message -e 32 -c 2 -a 0 -i 31 -k RTR
h -t 12.190336901 -s 7 -d -1 -p message -e 32 -c 2 -a 0 -i 31 -k RTR
+ -t 12.190411901 -s 7 -d -1 -p message -e 90 -c 2 -a 0 -i 31 -k MAC 
- -t 12.190411901 -s 7 -d -1 -p message -e 90 -c 2 -a 0 -i 31 -k MAC
h -t 12.190411901 -s 7 -d -1 -p message -e 90 -c 2 -a 0 -i 31 -k MAC
+ -t 12.191031644 -s 2 -d -1 -p message -e 32 -c 2 -a 0 -i 30 -k RTR 
- -t 12.191031644 -s 2 -d -1 -p message -e 32 -c 2 -a 0 -i 30 -k RTR
h -t 12.191031644 -s 2 -d -1 -p message -e 32 -c 2 -a 0 -i 30 -k RTR
r -t 12.191132144 -s 15 -d -1 -p message -e 32 -c 2 -a 0 -i 31 -k MAC
r -t 12.191132230 -s 6 -d -1 -p message -e 32 -c 2 -a 0 -i 31 -k MAC
r -t 12.191132513 -s 1 -d -1 -p message -e 32 -c 2 -a 0 -i 31 -k MAC
r -t 12.191132589 -s 5 -d -1 -p message -e 32 -c 2 -a 0 -i 31 -k MAC
r -t 12.191132666 -s 9 -d -1 -p message -e 32 -c 2 -a 0 -i 31 -k MAC
r -t 12.191132681 -s 14 -d -1 -p message -e 32 -c 2 -a 0 -i 31 -k MAC
r -t 12.191132702 -s 4 -d -1 -p message -e 32 -c 2 -a 0 -i 31 -k MAC
r -t 12.191132715 -s 16 -d -1 -p message -e 32 -c 2 -a 0 -i 31 -k MAC
r -t 12.191157144 -s 15 -d -1 -p message -e 32 -c 2 -a 0 -i 31 -k RTR
r -t 12.191157230 -s 6 -d -1 -p message -e 32 -c 2 -a 0 -i 31 -k RTR
r -t 12.191157513 -s 1 -d -1 -p message -e 32 -c 2 -a 0 -i 31 -k RTR
r -t 12.191157589 -s 5 -d -1 -p message -e 32 -c 2 -a 0 -i 31 -k RTR
r -t 12.191157666 -s 9 -d -1 -p message -e 32 -c 2 -a 0 -i 31 -k RTR
r -t 12.191157681 -s 14 -d -1 -p message -e 32 -c 2 -a 0 -i 31 -k RTR
r -t 12.191157702 -s 4 -d -1 -p message -e 32 -c 2 -a 0 -i 31 -k RTR
r -t 12.191157715 -s 16 -d -1 -p message -e 32 -c 2 -a 0 -i 31 -k RTR
+ -t 12.191606846 -s 2 -d -1 -p message -e 90 -c 2 -a 0 -i 30 -k MAC 
- -t 12.191606846 -s 2 -d -1 -p message -e 90 -c 2 -a 0 -i 30 -k MAC
h -t 12.191606846 -s 2 -d -1 -p message -e 90 -c 2 -a 0 -i 30 -k MAC
r -t 12.192327426 -s 1 -d -1 -p message -e 32 -c 2 -a 0 -i 30 -k MAC
r -t 12.192327514 -s 8 -d -1 -p message -e 32 -c 2 -a 0 -i 30 -k MAC
r -t 12.192327526 -s 3 -d -1 -p message -e 32 -c 2 -a 0 -i 30 -k MAC
r -t 12.192352426 -s 1 -d -1 -p message -e 32 -c 2 -a 0 -i 30 -k RTR
r -t 12.192352514 -s 8 -d -1 -p message -e 32 -c 2 -a 0 -i 30 -k RTR
r -t 12.192352526 -s 3 -d -1 -p message -e 32 -c 2 -a 0 -i 30 -k RTR
+ -t 12.193720278 -s 15 -d -1 -p message -e 32 -c 2 -a 0 -i 29 -k RTR 
- -t 12.193720278 -s 15 -d -1 -p message -e 32 -c 2 -a 0 -i 29 -k RTR
h -t 12.193720278 -s 15 -d -1 -p message -e 32 -c 2 -a 0 -i 29 -k RTR
+ -t 12.194215278 -s 15 -d -1 -p message -e 90 -c 2 -a 0 -i 29 -k MAC 
- -t 12.194215278 -s 15 -d -1 -p message -e 90 -c 2 -a 0 -i 29 -k MAC
h -t 12.194215278 -s 15 -d -1 -p message -e 90 -c 2 -a 0 -i 29 -k MAC
r -t 12.194935521 -s 7 -d -1 -p message -e 32 -c 2 -a 0 -i 29 -k MAC
r -t 12.194935677 -s 1 -d -1 -p message -e 32 -c 2 -a 0 -i 29 -k MAC
r -t 12.194935821 -s 6 -d -1 -p message -e 32 -c 2 -a 0 -i 29 -k MAC
r -t 12.194935879 -s 4 -d -1 -p message -e 32 -c 2 -a 0 -i 29 -k MAC
r -t 12.194935913 -s 5 -d -1 -p message -e 32 -c 2 -a 0 -i 29 -k MAC
r -t 12.194960521 -s 7 -d -1 -p message -e 32 -c 2 -a 0 -i 29 -k RTR
r -t 12.194960677 -s 1 -d -1 -p message -e 32 -c 2 -a 0 -i 29 -k RTR
r -t 12.194960821 -s 6 -d -1 -p message -e 32 -c 2 -a 0 -i 29 -k RTR
r -t 12.194960879 -s 4 -d -1 -p message -e 32 -c 2 -a 0 -i 29 -k RTR
r -t 12.194960913 -s 5 -d -1 -p message -e 32 -c 2 -a 0 -i 29 -k RTR
+ -t 12.198153354 -s 14 -d -1 -p message -e 32 -c 2 -a 0 -i 33 -k RTR 
- -t 12.198153354 -s 14 -d -1 -p message -e 32 -c 2 -a 0 -i 33 -k RTR
h -t 12.198153354 -s 14 -d -1 -p message -e 32 -c 2 -a 0 -i 33 -k RTR
+ -t 12.198488354 -s 14 -d -1 -p message -e 90 -c 2 -a 0 -i 33 -k MAC 
- -t 12.198488354 -s 14 -d -1 -p message -e 90 -c 2 -a 0 -i 33 -k MAC
h -t 12.198488354 -s 14 -d -1 -p message -e 90 -c 2 -a 0 -i 33 -k MAC
r -t 12.199208810 -s 5 -d -1 -p message -e 32 -c 2 -a 0 -i 33 -k MAC
r -t 12.199208921 -s 6 -d -1 -p message -e 32 -c 2 -a 0 -i 33 -k MAC
r -t 12.199208989 -s 17 -d -1 -p message -e 32 -c 2 -a 0 -i 33 -k MAC
r -t 12.199209134 -s 7 -d -1 -p message -e 32 -c 2 -a 0 -i 33 -k MAC
r -t 12.199233810 -s 5 -d -1 -p message -e 32 -c 2 -a 0 -i 33 -k RTR
r -t 12.199233921 -s 6 -d -1 -p message -e 32 -c 2 -a 0 -i 33 -k RTR
r -t 12.199233989 -s 17 -d -1 -p message -e 32 -c 2 -a 0 -i 33 -k RTR
r -t 12.199234134 -s 7 -d -1 -p message -e 32 -c 2 -a 0 -i 33 -k RTR
+ -t 12.205005946 -s 6 -d -1 -p message -e 32 -c 2 -a 0 -i 32 -k RTR 
- -t 12.205005946 -s 6 -d -1 -p message -e 32 -c 2 -a 0 -i 32 -k RTR
h -t 12.205005946 -s 6 -d -1 -p message -e 32 -c 2 -a 0 -i 32 -k RTR
+ -t 12.205100946 -s 6 -d -1 -p message -e 90 -c 2 -a 0 -i 32 -k MAC 
- -t 12.205100946 -s 6 -d -1 -p message -e 90 -c 2 -a 0 -i 32 -k MAC
h -t 12.205100946 -s 6 -d -1 -p message -e 90 -c 2 -a 0 -i 32 -k MAC
r -t 12.205821277 -s 7 -d -1 -p message -e 32 -c 2 -a 0 -i 32 -k MAC
r -t 12.205821489 -s 15 -d -1 -p message -e 32 -c 2 -a 0 -i 32 -k MAC