s -t 0.036479607 -Hs 0 -Hd -1 -Ni 0 -Nx 357.00 -Ny 618.00 -Nz 0.00 -Ne 50.000000 -Nl RTR -Nw --- -Ma 0 -Md 0 -Ms 0 -Mt 0 -Is 0.255 -Id -1.255 -It message -Il 32 -If 0 -Ii 0 -Iv 32 
s -t 0.036774607 -Hs 0 -Hd -1 -Ni 0 -Nx 357.00 -Ny 618.00 -Nz 0.00 -Ne 50.000000 -Nl MAC -Nw --- -Ma 0 -Md ffffffff -Ms 0 -Mt 800 -Is 0.255 -Id -1.255 -It message -Il 90 -If 0 -Ii 0 -Iv 32 
N -t 0.036775 -n 4 -e 49.977431
N -t 0.036775 -n 5 -e 49.977431
N -t 0.036776 -n 14 -e 49.977431
N -t 0.036776 -n 15 -e 49.977431
N -t 0.036776 -n 1 -e 49.977431
N -t 0.036776 -n 6 -e 49.977431
N -t 0.036776 -n 7 -e 49.977430
N -t 0.036776 -n 17 -e 49.977430
N -t 0.036776 -n 2 -e 49.977430
r -t 0.037495048 -Hs 4 -Hd -1 -Ni 4 -Nx 489.00 -Ny 629.00 -Nz 0.00 -Ne 49.977431 -Nl MAC -Nw --- -Ma 0 -Md ffffffff -Ms 0 -Mt 800 -Is 0.255 -Id -1.255 -It message -Il 32 -If 0 -Ii 0 -Iv 32 
r -t 0.037495114 -Hs 5 -Hd -1 -Ni 5 -Nx 439.00 -Ny 490.00 -Nz 0.00 -Ne 49.977431 -Nl MAC -Nw --- -Ma 0 -Md ffffffff -Ms 0 -Mt 800 -Is 0.255 -Id -1.255 -It message -Il 32 -If 0 -Ii 0 -Iv 32 
r -t 0.037520048 -Hs 4 -Hd -1 -Ni 4 -Nx 489.00 -Ny 629.00 -Nz 0.00 -Ne 49.977431 -Nl RTR -Nw --- -Ma 0 -Md ffffffff -Ms 0 -Mt 800 -Is 0.255 -Id -1.255 -It message -Il 32 -If 0 -Ii 0 -Iv 32 
r -t 0.037520114 -Hs 5 -Hd -1 -Ni 5 -Nx 439.00 -Ny 490.00 -Nz 0.00 -Ne 49.977431 -Nl RTR -Nw --- -Ma 0 -Md ffffffff -Ms 0 -Mt 800 -Is 0.255 -Id -1.255 -It message -Il 32 -If 0 -Ii 0 -Iv 32 
s -t 0.090775603 -Hs 11 -Hd -1 -Ni 11 -Nx 1249.00 -Ny 502.00 -Nz 0.00 -Ne 50.000000 -Nl RTR -Nw --- -Ma 0 -Md 0 -Ms 0 -Mt 0 -Is 11.255 -Id -1.255 -It message -Il 32 -If 0 -Ii 1 -Iv 32 
s -t 0.091030603 -Hs 11 -Hd -1 -Ni 11 -Nx 1249.00 -Ny 502.00 -Nz 0.00 -Ne 50.000000 -Nl MAC -Nw --- -Ma 0 -Md ffffffff -Ms b -Mt 800 -Is 11.255 -Id -1.255 -It message -Il 90 -If 0 -Ii 1 -Iv 32 
N -t 0.091031 -n 10 -e 49.944877
N -t 0.091031 -n 12 -e 49.944877
N -t 0.091031 -n 3 -e 49.944877
N -t 0.091032 -n 8 -e 49.944877
N -t 0.091032 -n 13 -e 49.944877
N -t 0.091032 -n 9 -e 49.944877
N -t 0.091032 -n 2 -e 49.944805
N -t 0.091032 -n 7 -e 49.944805
N -t 0.091032 -n 16 -e 49.944877
r -t 0.091751105 -Hs 10 -Hd -1 -Ni 10 -Nx 1161.00 -Ny 380.00 -Nz 0.00 -Ne 49.944877 -Nl MAC -Nw --- -Ma 0 -Md ffffffff -Ms b -Mt 800 -Is 11.255 -Id -1.255 -It message -Il 32 -If 0 -Ii 1 -Iv 32 
r -t 0.091751106 -Hs 12 -Hd -1 -Ni 12 -Nx 1265.00 -Ny 652.00 -Nz 0.00 -Ne 49.944877 -Nl MAC -Nw --- -Ma 0 -Md ffffffff -Ms b -Mt 800 -Is 11.255 -Id -1.255 -It message -Il 32 -If 0 -Ii 1 -Iv 32 
r -t 0.091751329 -Hs 3 -Hd -1 -Ni 3 -Nx 1059.00 -Ny 608.00 -Nz 0.00 -Ne 49.944877 -Nl MAC -Nw --- -Ma 0 -Md ffffffff -Ms b -Mt 800 -Is 11.255 -Id -1.255 -It message -Il 32 -If 0 -Ii 1 -Iv 32 
r -t 0.091776105 -Hs 10 -Hd -1 -Ni 10 -Nx 1161.00 -Ny 380.00 -Nz 0.00 -Ne 49.944877 -Nl RTR -Nw --- -Ma 0 -Md ffffffff -Ms b -Mt 800 -Is 11.255 -Id -1.255 -It message -Il 32 -If 0 -Ii 1 -Iv 32 
r -t 0.091776106 -Hs 12 -Hd -1 -Ni 12 -Nx 1265.00 -Ny 652.00 -Nz 0.00 -Ne 49.944877 -Nl RTR -Nw --- -Ma 0 -Md ffffffff -Ms b -Mt 800 -Is 11.255 -Id -1.255 -It message -Il 32 -If 0 -Ii 1 -Iv 32 
r -t 0.091776329 -Hs 3 -Hd -1 -Ni 3 -Nx 1059.00 -Ny 608.00 -Nz 0.00 -Ne 49.944877 -Nl RTR -Nw --- -Ma 0 -Md ffffffff -Ms b -Mt 800 -Is 11.255 -Id -1.255 -It message -Il 32 -If 0 -Ii 1 -Iv 32 
s -t 0.184643595 -Hs 1 -Hd -1 -Ni 1 -Nx 682.00 -Ny 621.00 -Nz 0.00 -Ne 49.977431 -Nl RTR -Nw --- -Ma 0 -Md 0 -Ms 0 -Mt 0 -Is 1.255 -Id -1.255 -It message -Il 32 -If 0 -Ii 2 -Iv 32 
s -t 0.185078595 -Hs 1 -Hd -1 -Ni 1 -Nx 682.00 -Ny 621.00 -Nz 0.00 -Ne 49.977431 -Nl MAC -Nw --- -Ma 0 -Md ffffffff -Ms 1 -Mt 800 -Is 1.255 -Id -1.255 -It message -Il 90 -If 0 -Ii 2 -Iv 32 
N -t 0.185079 -n 15 -e 49.888377
N -t 0.185079 -n 2 -e 49.888304
N -t 0.185079 -n 4 -e 49.888376
N -t 0.185079 -n 7 -e 49.888304
N -t 0.185080 -n 5 -e 49.888376
N -t 0.185080 -n 6 -e 49.888376
N -t 0.185080 -n 0 -e 49.888232
N -t 0.185080 -n 8 -e 49.888376
N -t 0.185080 -n 14 -e 49.888376
N -t 0.185080 -n 3 -e 49.888376
N -t 0.185080 -n 9 -e 49.888376
N -t 0.185080 -n 16 -e 49.888376
N -t 0.185080 -n 17 -e 49.888376
N -t 0.185080 -n 13 -e 49.888376
N -t 0.185080 -n 10 -e 49.888376
r -t 0.185798994 -Hs 15 -Hd -1 -Ni 15 -Nx 628.00 -Ny 514.00 -Nz 0.00 -Ne 49.888377 -Nl MAC -Nw --- -Ma 0 -Md ffffffff -Ms 1 -Mt 800 -Is 1.255 -Id -1.255 -It message -Il 32 -If 0 -Ii 2 -Iv 32 
r -t 0.185799175 -Hs 2 -Hd -1 -Ni 2 -Nx 856.00 -Ny 626.00 -Nz 0.00 -Ne 49.888304 -Nl MAC -Nw --- -Ma 0 -Md ffffffff -Ms 1 -Mt 800 -Is 1.255 -Id -1.255 -It message -Il 32 -If 0 -Ii 2 -Iv 32 
r -t 0.185799239 -Hs 4 -Hd -1 -Ni 4 -Nx 489.00 -Ny 629.00 -Nz 0.00 -Ne 49.888376 -Nl MAC -Nw --- -Ma 0 -Md ffffffff -Ms 1 -Mt 800 -Is 1.255 -Id -1.255 -It message -Il 32 -If 0 -Ii 2 -Iv 32 
r -t 0.185799286 -Hs 7 -Hd -1 -Ni 7 -Nx 758.00 -Ny 428.00 -Nz 0.00 -Ne 49.888304 -Nl MAC -Nw --- -Ma 0 -Md ffffffff -Ms 1 -Mt 800 -Is 1.255 -Id -1.255 -It message -Il 32 -If 0 -Ii 2 -Iv 32 
r -t 0.185823994 -Hs 15 -Hd -1 -Ni 15 -Nx 628.00 -Ny 514.00 -Nz 0.00 -Ne 49.888377 -Nl RTR -Nw --- -Ma 0 -Md ffffffff -Ms 1 -Mt 800 -Is 1.255 -Id -1.255 -It message -Il 32 -If 0 -Ii 2 -Iv 32 
r -t 0.185824175 -Hs 2 -Hd -1 -Ni 2 -Nx 856.00 -Ny 626.00 -Nz 0.00 -Ne 49.888304 -Nl RTR -Nw --- -Ma 0 -Md ffffffff -Ms 1 -Mt 800 -Is 1.255 -Id -1.255 -It message -Il 32 -If 0 -Ii 2 -Iv 32 
r -t 0.185824239 -Hs 4 -Hd -1 -Ni 4 -Nx 489.00 -Ny 629.00 -Nz 0.00 -Ne 49.888376 -Nl RTR -Nw --- -Ma 0 -Md ffffffff -Ms 1 -Mt 800 -Is 1.255 -Id -1.255 -It message -Il 32 -If 0 -Ii 2 -Iv 32 
r -t 0.185824286 -Hs 7 -Hd -1 -Ni 7 -Nx 758.00 -Ny 428.00 -Nz 0.00 -Ne 49.888304 -Nl RTR -Nw --- -Ma 0 -Md ffffffff -Ms 1 -Mt 800 -Is 1.255 -Id -1.255 -It message -Il 32 -If 0 -Ii 2 -Iv 32 
s -t 0.195051199 -Hs 17 -Hd -1 -Ni 17 -Nx 520.00 -Ny 190.00 -Nz 0.00 -Ne 49.888376 -Nl RTR -Nw --- -Ma 0 -Md 0 -Ms 0 -Mt 0 -Is 17.255 -Id -1.255 -It message -Il 32 -If 0 -Ii 3 -Iv 32 
s -t 0.195266199 -Hs 17 -Hd -1 -Ni 17 -Nx 520.00 -Ny 190.00 -Nz 0.00 -Ne 49.888376 -Nl MAC -Nw --- -Ma 0 -Md ffffffff -Ms 11 -Mt 800 -Is 17.255 -Id -1.255 -It message -Il 90 -If 0 -Ii 3 -Iv 32 
N -t 0.195267 -n 6 -e 49.882192
N -t 0.195267 -n 14 -e 49.882192
N -t 0.195267 -n 16 -e 49.882192
N -t 0.195267 -n 5 -e 49.882192
N -t 0.195267 -n 7 -e 49.882120
N -t 0.195267 -n 15 -e 49.882192
N -t 0.195268 -n 9 -e 49.882191
N -t 0.195268 -n 4 -e 49.882191
N -t 0.195268 -n 0 -e 49.882047
N -t 0.195268 -n 1 -e 49.882047
N -t 0.195268 -n 8 -e 49.882191
N -t 0.195268 -n 13 -e 49.882191
r -t 0.195986800 -Hs 6 -Hd -1 -Ni 6 -Nx 593.00 -Ny 355.00 -Nz 0.00 -Ne 49.882192 -Nl MAC -Nw --- -Ma 0 -Md ffffffff -Ms 11 -Mt 800 -Is 17.255 -Id -1.255 -It message -Il 32 -If 0 -Ii 3 -Iv 32 
r -t 0.195986834 -Hs 14 -Hd -1 -Ni 14 -Nx 423.00 -Ny 354.00 -Nz 0.00 -Ne 49.882192 -Nl MAC -Nw --- -Ma 0 -Md ffffffff -Ms 11 -Mt 800 -Is 17.255 -Id -1.255 -It message -Il 32 -If 0 -Ii 3 -Iv 32 
r -t 0.196011800 -Hs 6 -Hd -1 -Ni 6 -Nx 593.00 -Ny 355.00 -Nz 0.00 -Ne 49.882192 -Nl RTR -Nw --- -Ma 0 -Md ffffffff -Ms 11 -Mt 800 -Is 17.255 -Id -1.255 -It message -Il 32 -If 0 -Ii 3 -Iv 32 
r -t 0.196011834 -Hs 14 -Hd -1 -Ni 14 -Nx 423.00 -Ny 354.00 -Nz 0.00 -Ne 49.882192 -Nl RTR -Nw --- -Ma 0 -Md ffffffff -Ms 11 -Mt 800 -Is 17.255 -Id -1.255 -It message -Il 32 -If 0 -Ii 3 -Iv 32 
s -t 0.228708482 -Hs 13 -Hd -1 -Ni 13 -Nx 1048.00 -Ny 241.00 -Nz 0.00 -Ne 49.882191 -Nl RTR -Nw --- -Ma 0 -Md 0 -Ms 0 -Mt 0 -Is 13.255 -Id -1.255 -It message -Il 32 -If 0 -Ii 4 -Iv 32 
s -t 0.228883482 -Hs 13 -Hd -1 -Ni 13 -Nx 1048.00 -Ny 241.00 -Nz 0.00 -Ne 49.882191 -Nl MAC -Nw --- -Ma 0 -Md ffffffff -Ms d -Mt 800 -Is 13.255 -Id -1.255 -It message -Il 90 -If 0 -Ii 4 -Iv 32 
N -t 0.228884 -n 9 -e 49.861950
N -t 0.228884 -n 10 -e 49.862022
N -t 0.228884 -n 8 -e 49.861949
N -t 0.228884 -n 16 -e 49.861949
N -t 0.228885 -n 11 -e 49.861949
N -t 0.228885 -n 7 -e 49.861877
N -t 0.228885 -n 3 -e 49.862021
N -t 0.228885 -n 2 -e 49.861949
N -t 0.228885 -n 12 -e 49.862093
N -t 0.228885 -n 6 -e 49.861949
N -t 0.228885 -n 15 -e 49.861949
N -t 0.228885 -n 1 -e 49.861805
N -t 0.228885 -n 17 -e 49.861805
r -t 0.229603970 -Hs 9 -Hd -1 -Ni 9 -Nx 919.00 -Ny 310.00 -Nz 0.00 -Ne 49.861950 -Nl MAC -Nw --- -Ma 0 -Md ffffffff -Ms d -Mt 800 -Is 13.255 -Id -1.255 -It message -Il 32 -If 0 -Ii 4 -Iv 32 
r -t 0.229604079 -Hs 10 -Hd -1 -Ni 10 -Nx 1161.00 -Ny 380.00 -Nz 0.00 -Ne 49.862022 -Nl MAC -Nw --- -Ma 0 -Md ffffffff -Ms d -Mt 800 -Is 13.255 -Id -1.255 -It message -Il 32 -If 0 -Ii 4 -Iv 32 
r -t 0.229604262 -Hs 8 -Hd -1 -Ni 8 -Nx 971.00 -Ny 462.00 -Nz 0.00 -Ne 49.861949 -Nl MAC -Nw --- -Ma 0 -Md ffffffff -Ms d -Mt 800 -Is 13.255 -Id -1.255 -It message -Il 32 -If 0 -Ii 4 -Iv 32 
r -t 0.229628970 -Hs 9 -Hd -1 -Ni 9 -Nx 919.00 -Ny 310.00 -Nz 0.00 -Ne 49.861950 -Nl RTR -Nw --- -Ma 0 -Md ffffffff -Ms d -Mt 800 -Is 13.255 -Id -1.255 -It message -Il 32 -If 0 -Ii 4 -Iv 32 
r -t 0.229629079 -Hs 10 -Hd -1 -Ni 10 -Nx 1161.00 -Ny 380.00 -Nz 0.00 -Ne 49.862022 -Nl RTR -Nw --- -Ma 0 -Md ffffffff -Ms d -Mt 800 -Is 13.255 -Id -1.255 -It message -Il 32 -If 0 -Ii 4 -Iv 32 
r -t 0.229629262 -Hs 8 -Hd -1 -Ni 8 -Nx 971.00 -Ny 462.00 -Nz 0.00 -Ne 49.861949 -Nl RTR -Nw --- -Ma 0 -Md ffffffff -Ms d -Mt 800 -Is 13.255 -Id -1.255 -It message -Il 32 -If 0 -Ii 4 -Iv 32 
s -t 0.337753463 -Hs 10 -Hd -1 -Ni 10 -Nx 1161.00 -Ny 380.00 -Nz 0.00 -Ne 49.862022 -Nl RTR -Nw --- -Ma 0 -Md 0 -Ms 0 -Mt 0 -Is 10.255 -Id -1.255 -It message -Il 32 -If 0 -Ii 5 -Iv 32 
s -t 0.338408463 -Hs 10 -Hd -1 -Ni 10 -Nx 1161.00 -Ny 380.00 -Nz 0.00 -Ne 49.862022 -Nl MAC -Nw --- -Ma 0 -Md ffffffff -Ms a -Mt 800 -Is 10.255 -Id -1.255 -It message -Il 90 -If 0 -Ii 5 -Iv 32 
N -t 0.338409 -n 11 -e 49.796163
N -t 0.338409 -n 13 -e 49.796019
N -t 0.338409 -n 8 -e 49.796163
N -t 0.338409 -n 3 -e 49.796234
N -t 0.338409 -n 9 -e 49.796162
N -t 0.338409 -n 12 -e 49.796306
N -t 0.338410 -n 2 -e 49.796162
N -t 0.338410 -n 7 -e 49.796090
N -t 0.338410 -n 16 -e 49.796162
N -t 0.338410 -n 1 -e 49.796018
N -t 0.338410 -n 15 -e 49.796162
r -t 0.339128964 -Hs 11 -Hd -1 -Ni 11 -Nx 1249.00 -Ny 502.00 -Nz 0.00 -Ne 49.796163 -Nl MAC -Nw --- -Ma 0 -Md ffffffff -Ms a -Mt 800 -Is 10.255 -Id -1.255 -It message -Il 32 -If 0 -Ii 5 -Iv 32 
r -t 0.339129060 -Hs 13 -Hd -1 -Ni 13 -Nx 1048.00 -Ny 241.00 -Nz 0.00 -Ne 49.796019 -Nl MAC -Nw --- -Ma 0 -Md ffffffff -Ms a -Mt 800 -Is 10.255 -Id -1.255 -It message -Il 32 -If 0 -Ii 5 -Iv 32 
r -t 0.339129153 -Hs 8 -Hd -1 -Ni 8 -Nx 971.00 -Ny 462.00 -Nz 0.00 -Ne 49.796163 -Nl MAC -Nw --- -Ma 0 -Md ffffffff -Ms a -Mt 800 -Is 10.255 -Id -1.255 -It message -Il 32 -If 0 -Ii 5 -Iv 32 
r -t 0.339129295 -Hs 3 -Hd -1 -Ni 3 -Nx 1059.00 -Ny 608.00 -Nz 0.00 -Ne 49.796234 -Nl MAC -Nw --- -Ma 0 -Md ffffffff -Ms a -Mt 800 -Is 10.255 -Id -1.255 -It message -Il 32 -If 0 -Ii 5 -Iv 32 
r -t 0.339153964 -Hs 11 -Hd -1 -Ni 11 -Nx 1249.00 -Ny 502.00 -Nz 0.00 -Ne 49.796163 -Nl RTR -Nw --- -Ma 0 -Md ffffffff -Ms a -Mt 800 -Is 10.255 -Id -1.255 -It message -Il 32 -If 0 -Ii 5 -Iv 32 
r -t 0.339154060 -Hs 13 -Hd -1 -Ni 13 -Nx 1048.00 -Ny 241.00 -Nz 0.00 -Ne 49.796019 -Nl RTR -Nw --- -Ma 0 -Md ffffffff -Ms a -Mt 800 -Is 10.255 -Id -1.255 -It message -Il 32 -If 0 -Ii 5 -Iv 32 
r -t 0.339154153 -Hs 8 -Hd -1 -Ni 8 -Nx 971.00 -Ny 462.00 -Nz 0.00 -Ne 49.796163 -Nl RTR -Nw --- -Ma 0 -Md ffffffff -Ms a -Mt 800 -Is 10.255 -Id -1.255 -It message -Il 32 -If 0 -Ii 5 -Iv 32 
r -t 0.339154295 -Hs 3 -Hd -1 -Ni 3 -Nx 1059.00 -Ny 608.00 -Nz 0.00 -Ne 49.796234 -Nl RTR -Nw --- -Ma 0 -Md ffffffff -Ms a -Mt 800 -Is 10.255 -Id -1.255 -It message -Il 32 -If 0 -Ii 5 -Iv 32 
s -t 0.349718591 -Hs 16 -Hd -1 -Ni 16 -Nx 779.00 -Ny 241.00 -Nz 0.00 -Ne 49.796162 -Nl RTR -Nw --- -Ma 0 -Md 0 -Ms 0 -Mt 0 -Is 16.255 -Id -1.255 -It message -Il 32 -If 0 -Ii 6 -Iv 32 
s -t 0.350293591 -Hs 16 -Hd -1 -Ni 16 -Nx 779.00 -Ny 241.00 -Nz 0.00 -Ne 49.796162 -Nl MAC -Nw --- -Ma 0 -Md ffffffff -Ms 10 -Mt 800 -Is 16.255 -Id -1.255 -It message -Il 90 -If 0 -Ii 6 -Iv 32 
N -t 0.350294 -n 9 -e 49.788960
N -t 0.350294 -n 7 -e 49.788887
N -t 0.350294 -n 6 -e 49.789031
N -t 0.350294 -n 17 -e 49.788887
N -t 0.350294 -n 13 -e 49.788815
N -t 0.350295 -n 8 -e 49.788959
N -t 0.350295 -n 15 -e 49.788959
N -t 0.350295 -n 14 -e 49.789103
N -t 0.350295 -n 1 -e 49.788815
N -t 0.350295 -n 2 -e 49.788959
N -t 0.350295 -n 10 -e 49.788887
N -t 0.350295 -n 5 -e 49.789103
N -t 0.350295 -n 3 -e 49.789031
N -t 0.350295 -n 4 -e 49.789103
N -t 0.350295 -n 11 -e 49.788959
r -t 0.351014111 -Hs 9 -Hd -1 -Ni 9 -Nx 919.00 -Ny 310.00 -Nz 0.00 -Ne 49.788960 -Nl MAC -Nw --- -Ma 0 -Md ffffffff -Ms 10 -Mt 800 -Is 16.255 -Id -1.255 -It message -Il 32 -If 0 -Ii 6 -Iv 32 
r -t 0.351014218 -Hs 7 -Hd -1 -Ni 7 -Nx 758.00 -Ny 428.00 -Nz 0.00 -Ne 49.788887 -Nl MAC -Nw --- -Ma 0 -Md ffffffff -Ms 10 -Mt 800 -Is 16.255 -Id -1.255 -It message -Il 32 -If 0 -Ii 6 -Iv 32 
r -t 0.351014318 -Hs 6 -Hd -1 -Ni 6 -Nx 593.00 -Ny 355.00 -Nz 0.00 -Ne 49.789031 -Nl MAC -Nw --- -Ma 0 -Md ffffffff -Ms 10 -Mt 800 -Is 16.255 -Id -1.255 -It message -Il 32 -If 0 -Ii 6 -Iv 32 
r -t 0.351039111 -Hs 9 -Hd -1 -Ni 9 -Nx 919.00 -Ny 310.00 -Nz 0.00 -Ne 49.788960 -Nl RTR -Nw --- -Ma 0 -Md ffffffff -Ms 10 -Mt 800 -Is 16.255 -Id -1.255 -It message -Il 32 -If 0 -Ii 6 -Iv 32 
r -t 0.351039218 -Hs 7 -Hd -1 -Ni 7 -Nx 758.00 -Ny 428.00 -Nz 0.00 -Ne 49.788887 -Nl RTR -Nw --- -Ma 0 -Md ffffffff -Ms 10 -Mt 800 -Is 16.255 -Id -1.255 -It message -Il 32 -If 0 -Ii 6 -Iv 32 
r -t 0.351039318 -Hs 6 -Hd -1 -Ni 6 -Nx 593.00 -Ny 355.00 -Nz 0.00 -Ne 49.789031 -Nl RTR -Nw --- -Ma 0 -Md ffffffff -Ms 10 -Mt 800 -Is 16.255 -Id -1.255 -It message -Il 32 -If 0 -Ii 6 -Iv 32 
s -t 0.475889743 -Hs 6 -Hd -1 -Ni 6 -Nx 593.00 -Ny 355.00 -Nz 0.00 -Ne 49.789031 -Nl RTR -Nw --- -Ma 0 -Md 0 -Ms 0 -Mt 0 -Is 6.255 -Id -1.255 -It message -Il 32 -If 0 -Ii 7 -Iv 32 
s -t 0.476444743 -Hs 6 -Hd -1 -Ni 6 -Nx 593.00 -Ny 355.00 -Nz 0.00 -Ne 49.789031 -Nl MAC -Nw --- -Ma 0 -Md ffffffff -Ms 6 -Mt 800 -Is 6.255 -Id -1.255 -It message -Il 90 -If 0 -Ii 7 -Iv 32 
N -t 0.476445 -n 15 -e 49.713197
N -t 0.476445 -n 14 -e 49.713341
N -t 0.476445 -n 17 -e 49.713125
N -t 0.476445 -n 7 -e 49.713125
N -t 0.476445 -n 5 -e 49.713341
N -t 0.476445 -n 16 -e 49.713053
N -t 0.476446 -n 1 -e 49.713053
N -t 0.476446 -n 4 -e 49.713341
N -t 0.476446 -n 9 -e 49.713196
N -t 0.476446 -n 0 -e 49.713268
N -t 0.476446 -n 2 -e 49.713196
N -t 0.476446 -n 8 -e 49.713196
N -t 0.476446 -n 13 -e 49.713052
N -t 0.476447 -n 3 -e 49.713268
r -t 0.477165285 -Hs 15 -Hd -1 -Ni 15 -Nx 628.00 -Ny 514.00 -Nz 0.00 -Ne 49.713197 -Nl MAC -Nw --- -Ma 0 -Md ffffffff -Ms 6 -Mt 800 -Is 6.255 -Id -1.255 -It message -Il 32 -If 0 -Ii 7 -Iv 32 
r -t 0.477165309 -Hs 14 -Hd -1 -Ni 14 -Nx 423.00 -Ny 354.00 -Nz 0.00 -Ne 49.713341 -Nl MAC -Nw --- -Ma 0 -Md ffffffff -Ms 6 -Mt 800 -Is 6.255 -Id -1.255 -It message -Il 32 -If 0 -Ii 7 -Iv 32 
r -t 0.477165344 -Hs 17 -Hd -1 -Ni 17 -Nx 520.00 -Ny 190.00 -Nz 0.00 -Ne 49.713125 -Nl MAC -Nw --- -Ma 0 -Md ffffffff -Ms 6 -Mt 800 -Is 6.255 -Id -1.255 -It message -Il 32 -If 0 -Ii 7 -Iv 32 
r -t 0.477165344 -Hs 7 -Hd -1 -Ni 7 -Nx 758.00 -Ny 428.00 -Nz 0.00 -Ne 49.713125 -Nl MAC -Nw --- -Ma 0 -Md ffffffff -Ms 6 -Mt 800 -Is 6.255 -Id -1.255 -It message -Il 32 -If 0 -Ii 7 -Iv 32 
r -t 0.477165425 -Hs 5 -Hd -1 -Ni 5 -Nx 439.00 -Ny 490.00 -Nz 0.00 -Ne 49.713341 -Nl MAC -Nw --- -Ma 0 -Md ffffffff -Ms 6 -Mt 800 -Is 6.255 -Id -1.255 -It message -Il 32 -If 0 -Ii 7 -Iv 32 
r -t 0.477165470 -Hs 16 -Hd -1 -Ni 16 -Nx 779.00 -Ny 241.00 -Nz 0.00 -Ne 49.713053 -Nl MAC -Nw --- -Ma 0 -Md ffffffff -Ms 6 -Mt 800 -Is 6.255 -Id -1.255 -It message -Il 32 -If 0 -Ii 7 -Iv 32 
r -t 0.477190285 -Hs 15 -Hd -1 -Ni 15 -Nx 628.00 -Ny 514.00 -Nz 0.00 -Ne 49.713197 -Nl RTR -Nw --- -Ma 0 -Md ffffffff -Ms 6 -Mt 800 -Is 6.255 -Id -1.255 -It message -Il 32 -If 0 -Ii 7 -Iv 32 
r -t 0.477190309 -Hs 14 -Hd -1 -Ni 14 -Nx 423.00 -Ny 354.00 -Nz 0.00 -Ne 49.713341 -Nl RTR -Nw --- -Ma 0 -Md ffffffff -Ms 6 -Mt 800 -Is 6.255 -Id -1.255 -It message -Il 32 -If 0 -Ii 7 -Iv 32 
r -t 0.477190344 -Hs 17 -Hd -1 -Ni 17 -Nx 520.00 -Ny 190.00 -Nz 0.00 -Ne 49.713125 -Nl RTR -Nw --- -Ma 0 -Md ffffffff -Ms 6 -Mt 800 -Is 6.255 -Id -1.255 -It message -Il 32 -If 0 -Ii 7 -Iv 32 
r -t 0.477190344 -Hs 7 -Hd -1 -Ni 7 -Nx 758.00 -Ny 428.00 -Nz 0.00 -Ne 49.713125 -Nl RTR -Nw --- -Ma 0 -Md ffffffff -Ms 6 -Mt 800 -Is 6.255 -Id -1.255 -It message -Il 32 -If 0 -Ii 7 -Iv 32 
r -t 0.477190425 -Hs 5 -Hd -1 -Ni 5 -Nx 439.00 -Ny 490.00 -Nz 0.00 -Ne 49.713341 -Nl RTR -Nw --- -Ma 0 -Md ffffffff -Ms 6 -Mt 800 -Is 6.255 -Id -1.255 -It message -Il 32 -If 0 -Ii 7 -Iv 32 
r -t 0.477190470 -Hs 16 -Hd -1 -Ni 16 -Nx 779.00 -Ny 241.00 -Nz 0.00 -Ne 49.713053 -Nl RTR -Nw --- -Ma 0 -Md ffffffff -Ms 6 -Mt 800 -Is 6.255 -Id -1.255 -It message -Il 32 -If 0 -Ii 7 -Iv 32 
s -t 0.626924672 -Hs 8 -Hd -1 -Ni 8 -Nx 971.00 -Ny 462.00 -Nz 0.00 -Ne 49.713196 -Nl RTR -Nw --- -Ma 0 -Md 0 -Ms 0 -Mt 0 -Is 8.255 -Id -1.255 -It message -Il 32 -If 0 -Ii 8 -Iv 32 
s -t 0.627079672 -Hs 8 -Hd -1 -Ni 8 -Nx 971.00 -Ny 462.00 -Nz 0.00 -Ne 49.713196 -Nl MAC -Nw --- -Ma 0 -Md ffffffff -Ms 8 -Mt 800 -Is 8.255 -Id -1.255 -It message -Il 90 -If 0 -Ii 8 -Iv 32 
N -t 0.627080 -n 9 -e 49.622744
N -t 0.627080 -n 3 -e 49.622816
N -t 0.627080 -n 2 -e 49.622744
N -t 0.627080 -n 10 -e 49.622744
N -t 0.627080 -n 7 -e 49.622672
N -t 0.627080 -n 13 -e 49.622600
N -t 0.627081 -n 11 -e 49.622816
N -t 0.627081 -n 16 -e 49.622600
N -t 0.627081 -n 1 -e 49.622600
N -t 0.627081 -n 15 -e 49.622744
N -t 0.627081 -n 12 -e 49.623031
N -t 0.627081 -n 6 -e 49.622671
N -t 0.627081 -n 4 -e 49.622887
N -t 0.627081 -n 17 -e 49.622671
N -t 0.627081 -n 5 -e 49.622887
r -t 0.627800208 -Hs 9 -Hd -1 -Ni 9 -Nx 919.00 -Ny 310.00 -Nz 0.00 -Ne 49.622744 -Nl MAC -Nw --- -Ma 0 -Md ffffffff -Ms 8 -Mt 800 -Is 8.255 -Id -1.255 -It message -Il 32 -If 0 -Ii 8 -Iv 32 
r -t 0.627800241 -Hs 3 -Hd -1 -Ni 3 -Nx 1059.00 -Ny 608.00 -Nz 0.00 -Ne 49.622816 -Nl MAC -Nw --- -Ma 0 -Md ffffffff -Ms 8 -Mt 800 -Is 8.255 -Id -1.255 -It message -Il 32 -If 0 -Ii 8 -Iv 32 
r -t 0.627800340 -Hs 2 -Hd -1 -Ni 2 -Nx 856.00 -Ny 626.00 -Nz 0.00 -Ne 49.622744 -Nl MAC -Nw --- -Ma 0 -Md ffffffff -Ms 8 -Mt 800 -Is 8.255 -Id -1.255 -It message -Il 32 -If 0 -Ii 8 -Iv 32 
r -t 0.627800362 -Hs 10 -Hd -1 -Ni 10 -Nx 1161.00 -Ny 380.00 -Nz 0.00 -Ne 49.622744 -Nl MAC -Nw --- -Ma 0 -Md ffffffff -Ms 8 -Mt 800 -Is 8.255 -Id -1.255 -It message -Il 32 -If 0 -Ii 8 -Iv 32 
r -t 0.627800391 -Hs 7 -Hd -1 -Ni 7 -Nx 758.00 -Ny 428.00 -Nz 0.00 -Ne 49.622672 -Nl MAC -Nw --- -Ma 0 -Md ffffffff -Ms 8 -Mt 800 -Is 8.255 -Id -1.255 -It message -Il 32 -If 0 -Ii 8 -Iv 32 
r -t 0.627800453 -Hs 13 -Hd -1 -Ni 13 -Nx 1048.00 -Ny 241.00 -Nz 0.00 -Ne 49.622600 -Nl MAC -Nw --- -Ma 0 -Md ffffffff -Ms 8 -Mt 800 -Is 8.255 -Id -1.255 -It message -Il 32 -If 0 -Ii 8 -Iv 32 
r -t 0.627825208 -Hs 9 -Hd -1 -Ni 9 -Nx 919.00 -Ny 310.00 -Nz 0.00 -Ne 49.622744 -Nl RTR -Nw --- -Ma 0 -Md ffffffff -Ms 8 -Mt 800 -Is 8.255 -Id -1.255 -It message -Il 32 -If 0 -Ii 8 -Iv 32 
r -t 0.627825241 -Hs 3 -Hd -1 -Ni 3 -Nx 1059.00 -Ny 608.00 -Nz 0.00 -Ne 49.622816 -Nl RTR -Nw --- -Ma 0 -Md ffffffff -Ms 8 -Mt 800 -Is 8.255 -Id -1.255 -It message -Il 32 -If 0 -Ii 8 -Iv 32 
r -t 0.627825340 -Hs 2 -Hd -1 -Ni 2 -Nx 856.00 -Ny 626.00 -Nz 0.00 -Ne 49.622744 -Nl RTR -Nw --- -Ma 0 -Md ffffffff -Ms 8 -Mt 800 -Is 8.255 -Id -1.255 -It message -Il 32 -If 0 -Ii 8 -Iv 32 
r -t 0.627825362 -Hs 10 -Hd -1 -Ni 10 -Nx 1161.00 -Ny 380.00 -Nz 0.00 -Ne 49.622744 -Nl RTR -Nw --- -Ma 0 -Md ffffffff -Ms 8 -Mt 800 -Is 8.255 -Id -1.255 -It message -Il 32 -If 0 -Ii 8 -Iv 32 
r -t 0.627825391 -Hs 7 -Hd -1 -Ni 7 -Nx 758.00 -Ny 428.00 -Nz 0.00 -Ne 49.622672 -Nl RTR -Nw --- -Ma 0 -Md ffffffff -Ms 8 -Mt 800 -Is 8.255 -Id -1.255 -It message -Il 32 -If 0 -Ii 8 -Iv 32 
r -t 0.627825453 -Hs 13 -Hd -1 -Ni 13 -Nx 1048.00 -Ny 241.00 -Nz 0.00 -Ne 49.622600 -Nl RTR -Nw --- -Ma 0 -Md ffffffff -Ms 8 -Mt 800 -Is 8.255 -Id -1.255 -It message -Il 32 -If 0 -Ii 8 -Iv 32 
s -t 0.631471940 -Hs 4 -Hd -1 -Ni 4 -Nx 489.00 -Ny 629.00 -Nz 0.00 -Ne 49.622887 -Nl RTR -Nw --- -Ma 0 -Md 0 -Ms 0 -Mt 0 -Is 4.255 -Id -1.255 -It message -Il 32 -If 0 -Ii 9 -Iv 32 
s -t 0.631546940 -Hs 4 -Hd -1 -Ni 4 -Nx 489.00 -Ny 629.00 -Nz 0.00 -Ne 49.622887 -Nl MAC -Nw --- -Ma 0 -Md ffffffff -Ms 4 -Mt 800 -Is 4.255 -Id -1.255 -It message -Il 90 -If 0 -Ii 9 -Iv 32 
N -t 0.631547 -n 0 -e 49.620136
N -t 0.631547 -n 5 -e 49.620136
N -t 0.631548 -n 15 -e 49.619991
N -t 0.631548 -n 1 -e 49.619847
N -t 0.631548 -n 14 -e 49.620207
N -t 0.631548 -n 6 -e 49.619919
N -t 0.631548 -n 7 -e 49.619919
N -t 0.631548 -n 2 -e 49.619991
N -t 0.631548 -n 17 -e 49.619919
N -t 0.631549 -n 16 -e 49.619847
N -t 0.631549 -n 8 -e 49.619847
N -t 0.631549 -n 9 -e 49.619991
r -t 0.632267382 -Hs 0 -Hd -1 -Ni 0 -Nx 357.00 -Ny 618.00 -Nz 0.00 -Ne 49.620136 -Nl MAC -Nw --- -Ma 0 -Md ffffffff -Ms 4 -Mt 800 -Is 4.255 -Id -1.255 -It message -Il 32 -If 0 -Ii 9 -Iv 32 
r -t 0.632267432 -Hs 5 -Hd -1 -Ni 5 -Nx 439.00 -Ny 490.00 -Nz 0.00 -Ne 49.620136 -Nl MAC -Nw --- -Ma 0 -Md ffffffff -Ms 4 -Mt 800 -Is 4.255 -Id -1.255 -It message -Il 32 -If 0 -Ii 9 -Iv 32 
r -t 0.632267541 -Hs 15 -Hd -1 -Ni 15 -Nx 628.00 -Ny 514.00 -Nz 0.00 -Ne 49.619991 -Nl MAC -Nw --- -Ma 0 -Md ffffffff -Ms 4 -Mt 800 -Is 4.255 -Id -1.255 -It message -Il 32 -If 0 -Ii 9 -Iv 32 
r -t 0.632267584 -Hs 1 -Hd -1 -Ni 1 -Nx 682.00 -Ny 621.00 -Nz 0.00 -Ne 49.619847 -Nl MAC -Nw --- -Ma 0 -Md ffffffff -Ms 4 -Mt 800 -Is 4.255 -Id -1.255 -It message -Il 32 -If 0 -Ii 9 -Iv 32 
r -t 0.632292382 -Hs 0 -Hd -1 -Ni 0 -Nx 357.00 -Ny 618.00 -Nz 0.00 -Ne 49.620136 -Nl RTR -Nw --- -Ma 0 -Md ffffffff -Ms 4 -Mt 800 -Is 4.255 -Id -1.255 -It message -Il 32 -If 0 -Ii 9 -Iv 32 
r -t 0.632292432 -Hs 5 -Hd -1 -Ni 5 -Nx 439.00 -Ny 490.00 -Nz 0.00 -Ne 49.620136 -Nl RTR -Nw --- -Ma 0 -Md ffffffff -Ms 4 -Mt 800 -Is 4.255 -Id -1.255 -It message -Il 32 -If 0 -Ii 9 -Iv 32 
r -t 0.632292541 -Hs 15 -Hd -1 -Ni 15 -Nx 628.00 -Ny 514.00 -Nz 0.00 -Ne 49.619991 -Nl RTR -Nw --- -Ma 0 -Md ffffffff -Ms 4 -Mt 800 -Is 4.255 -Id -1.255 -It message -Il 32 -If 0 -Ii 9 -Iv 32 
r -t 0.632292584 -Hs 1 -Hd -1 -Ni 1 -Nx 682.00 -Ny 621.00 -Nz 0.00 -Ne 49.619847 -Nl RTR -Nw --- -Ma 0 -Md ffffffff -Ms 4 -Mt 800 -Is 4.255 -Id -1.255 -It message -Il 32 -If 0 -Ii 9 -Iv 32 
s -t 0.856781634 -Hs 15 -Hd -1 -Ni 15 -Nx 628.00 -Ny 514.00 -Nz 0.00 -Ne 49.619991 -Nl RTR -Nw --- -Ma 0 -Md 0 -Ms 0 -Mt 0 -Is 15.255 -Id -1.255 -It message -Il 32 -If 0 -Ii 10 -Iv 32 
s -t 0.856876634 -Hs 15 -Hd -1 -Ni 15 -Nx 628.00 -Ny 514.00 -Nz 0.00 -Ne 49.619991 -Nl MAC -Nw --- -Ma 0 -Md ffffffff -Ms f -Mt 800 -Is 15.255 -Id -1.255 -It message -Il 90 -If 0 -Ii 10 -Iv 32 
N -t 0.856877 -n 1 -e 49.484578
N -t 0.856877 -n 7 -e 49.484650
N -t 0.856877 -n 6 -e 49.484650
N -t 0.856877 -n 4 -e 49.484722
N -t 0.856877 -n 5 -e 49.484866
N -t 0.856877 -n 2 -e 49.484722
N -t 0.856878 -n 14 -e 49.484937
N -t 0.856878 -n 0 -e 49.484865
N -t 0.856878 -n 16 -e 49.484577
N -t 0.856878 -n 17 -e 49.484649
N -t 0.856878 -n 8 -e 49.484577
N -t 0.856878 -n 9 -e 49.484721
N -t 0.856878 -n 3 -e 49.484865
N -t 0.856878 -n 13 -e 49.484649
N -t 0.856878 -n 10 -e 49.484793
r -t 0.857597034 -Hs 1 -Hd -1 -Ni 1 -Nx 682.00 -Ny 621.00 -Nz 0.00 -Ne 49.484578 -Nl MAC -Nw --- -Ma 0 -Md ffffffff -Ms f -Mt 800 -Is 15.255 -Id -1.255 -It message -Il 32 -If 0 -Ii 10 -Iv 32 
r -t 0.857597154 -Hs 7 -Hd -1 -Ni 7 -Nx 758.00 -Ny 428.00 -Nz 0.00 -Ne 49.484650 -Nl MAC -Nw --- -Ma 0 -Md ffffffff -Ms f -Mt 800 -Is 15.255 -Id -1.255 -It message -Il 32 -If 0 -Ii 10 -Iv 32 
r -t 0.857597177 -Hs 6 -Hd -1 -Ni 6 -Nx 593.00 -Ny 355.00 -Nz 0.00 -Ne 49.484650 -Nl MAC -Nw --- -Ma 0 -Md ffffffff -Ms f -Mt 800 -Is 15.255 -Id -1.255 -It message -Il 32 -If 0 -Ii 10 -Iv 32 
r -t 0.857597236 -Hs 4 -Hd -1 -Ni 4 -Nx 489.00 -Ny 629.00 -Nz 0.00 -Ne 49.484722 -Nl MAC -Nw --- -Ma 0 -Md ffffffff -Ms f -Mt 800 -Is 15.255 -Id -1.255 -It message -Il 32 -If 0 -Ii 10 -Iv 32 
r -t 0.857597270 -Hs 5 -Hd -1 -Ni 5 -Nx 439.00 -Ny 490.00 -Nz 0.00 -Ne 49.484866 -Nl MAC -Nw --- -Ma 0 -Md ffffffff -Ms f -Mt 800 -Is 15.255 -Id -1.255 -It message -Il 32 -If 0 -Ii 10 -Iv 32 
r -t 0.857622034 -Hs 1 -Hd -1 -Ni 1 -Nx 682.00 -Ny 621.00 -Nz 0.00 -Ne 49.484578 -Nl RTR -Nw --- -Ma 0 -Md ffffffff -Ms f -Mt 800 -Is 15.255 -Id -1.255 -It message -Il 32 -If 0 -Ii 10 -Iv 32 
r -t 0.857622154 -Hs 7 -Hd -1 -Ni 7 -Nx 758.00 -Ny 428.00 -Nz 0.00 -Ne 49.484650 -Nl RTR -Nw --- -Ma 0 -Md ffffffff -Ms f -Mt 800 -Is 15.255 -Id -1.255 -It message -Il 32 -If 0 -Ii 10 -Iv 32 
r -t 0.857622177 -Hs 6 -Hd -1 -Ni 6 -Nx 593.00 -Ny 355.00 -Nz 0.00 -Ne 49.484650 -Nl RTR -Nw --- -Ma 0 -Md ffffffff -Ms f -Mt 800 -Is 15.255 -Id -1.255 -It message -Il 32 -If 0 -Ii 10 -Iv 32 
r -t 0.857622236 -Hs 4 -Hd -1 -Ni 4 -Nx 489.00 -Ny 629.00 -Nz 0.00 -Ne 49.484722 -Nl RTR -Nw --- -Ma 0 -Md ffffffff -Ms f -Mt 800 -Is 15.255 -Id -1.255 -It message -Il 32 -If 0 -Ii 10 -Iv 32 
r -t 0.857622270 -Hs 5 -Hd -1 -Ni 5 -Nx 439.00 -Ny 490.00 -Nz 0.00 -Ne 49.484866 -Nl RTR -Nw --- -Ma 0 -Md ffffffff -Ms f -Mt 800 -Is 15.255 -Id -1.255 -It message -Il 32 -If 0 -Ii 10 -Iv 32 
s -t 0.884134043 -Hs 2 -Hd -1 -Ni 2 -Nx 856.00 -Ny 626.00 -Nz 0.00 -Ne 49.484722 -Nl RTR -Nw --- -Ma 0 -Md 0 -Ms 0 -Mt 0 -Is 2.255 -Id -1.255 -It message -Il 32 -If 0 -Ii 11 -Iv 32 
s -t 0.884509043 -Hs 2 -Hd -1 -Ni 2 -Nx 856.00 -Ny 626.00 -Nz 0.00 -Ne 49.484722 -Nl MAC -Nw --- -Ma 0 -Md ffffffff -Ms 2 -Mt 800 -Is 2.255 -Id -1.255 -It message -Il 90 -If 0 -Ii 11 -Iv 32 
N -t 0.884510 -n 1 -e 49.467926
N -t 0.884510 -n 8 -e 49.467926
N -t 0.884510 -n 3 -e 49.468214
N -t 0.884510 -n 7 -e 49.467998
N -t 0.884510 -n 15 -e 49.467926
N -t 0.884510 -n 9 -e 49.468070
N -t 0.884510 -n 4 -e 49.468070
N -t 0.884510 -n 6 -e 49.467998
N -t 0.884510 -n 10 -e 49.468142
N -t 0.884510 -n 16 -e 49.467926
N -t 0.884510 -n 12 -e 49.468502
N -t 0.884510 -n 11 -e 49.468286
N -t 0.884510 -n 13 -e 49.467998
N -t 0.884511 -n 5 -e 49.468214
N -t 0.884511 -n 0 -e 49.468214
N -t 0.884511 -n 14 -e 49.468286
r -t 0.885229623 -Hs 1 -Hd -1 -Ni 1 -Nx 682.00 -Ny 621.00 -Nz 0.00 -Ne 49.467926 -Nl MAC -Nw --- -Ma 0 -Md ffffffff -Ms 2 -Mt 800 -Is 2.255 -Id -1.255 -It message -Il 32 -If 0 -Ii 11 -Iv 32 
r -t 0.885229710 -Hs 8 -Hd -1 -Ni 8 -Nx 971.00 -Ny 462.00 -Nz 0.00 -Ne 49.467926 -Nl MAC -Nw --- -Ma 0 -Md ffffffff -Ms 2 -Mt 800 -Is 2.255 -Id -1.255 -It message -Il 32 -If 0 -Ii 11 -Iv 32 
r -t 0.885229722 -Hs 3 -Hd -1 -Ni 3 -Nx 1059.00 -Ny 608.00 -Nz 0.00 -Ne 49.468214 -Nl MAC -Nw --- -Ma 0 -Md ffffffff -Ms 2 -Mt 800 -Is 2.255 -Id -1.255 -It message -Il 32 -If 0 -Ii 11 -Iv 32 
r -t 0.885229779 -Hs 7 -Hd -1 -Ni 7 -Nx 758.00 -Ny 428.00 -Nz 0.00 -Ne 49.467998 -Nl MAC -Nw --- -Ma 0 -Md ffffffff -Ms 2 -Mt 800 -Is 2.255 -Id -1.255 -It message -Il 32 -If 0 -Ii 11 -Iv 32 
r -t 0.885254623 -Hs 1 -Hd -1 -Ni 1 -Nx 682.00 -Ny 621.00 -Nz 0.00 -Ne 49.467926 -Nl RTR -Nw --- -Ma 0 -Md ffffffff -Ms 2 -Mt 800 -Is 2.255 -Id -1.255 -It message -Il 32 -If 0 -Ii 11 -Iv 32 
r -t 0.885254710 -Hs 8 -Hd -1 -Ni 8 -Nx 971.00 -Ny 462.00 -Nz 0.00 -Ne 49.467926 -Nl RTR -Nw --- -Ma 0 -Md ffffffff -Ms 2 -Mt 800 -Is 2.255 -Id -1.255 -It message -Il 32 -If 0 -Ii 11 -Iv 32 
r -t 0.885254722 -Hs 3 -Hd -1 -Ni 3 -Nx 1059.00 -Ny 608.00 -Nz 0.00 -Ne 49.468214 -Nl RTR -Nw --- -Ma 0 -Md ffffffff -Ms 2 -Mt 800 -Is 2.255 -Id -1.255 -It message -Il 32 -If 0 -Ii 11 -Iv 32 
r -t 0.885254779 -Hs 7 -Hd -1 -Ni 7 -Nx 758.00 -Ny 428.00 -Nz 0.00 -Ne 49.467998 -Nl RTR -Nw --- -Ma 0 -Md ffffffff -Ms 2 -Mt 800 -Is 2.255 -Id -1.255 -It message -Il 32 -If 0 -Ii 11 -Iv 32 
M 1.00000 7 (758.00, 428.00, 0.00), (500.00, 300.00), 10.00
s -t 1.000000000 -Hs 5 -Hd -2 -Ni 5 -Nx 439.00 -Ny 490.00 -Nz 0.00 -Ne 49.468214 -Nl AGT -Nw --- -Ma 0 -Md 0 -Ms 0 -Mt 0 -Is 5.0 -Id 11.0 -It tcp -Il 40 -If 0 -Ii 12 -Iv 32 -Pn tcp -Ps 0 -Pa 0 -Pf 0 -Po 0 
r -t 1.000000000 -Hs 5 -Hd -2 -Ni 5 -Nx 439.00 -Ny 490.00 -Nz 0.00 -Ne 49.468214 -Nl RTR -Nw --- -Ma 0 -Md 0 -Ms 0 -Mt 0 -Is 5.0 -Id 11.0 -It tcp -Il 40 -If 0 -Ii 12 -Iv 32 -Pn tcp -Ps 0 -Pa 0 -Pf 0 -Po 0 
s -t 1.278231621 -Hs 7 -Hd -1 -Ni 7 -Nx 755.51 -Ny 426.76 -Nz 0.00 -Ne 49.467998 -Nl RTR -Nw --- -Ma 0 -Md 0 -Ms 0 -Mt 0 -Is 7.255 -Id -1.255 -It message -Il 32 -If 0 -Ii 13 -Iv 32 
s -t 1.278506621 -Hs 7 -Hd -1 -Ni 7 -Nx 755.51 -Ny 426.76 -Nz 0.00 -Ne 49.467998 -Nl MAC -Nw --- -Ma 0 -Md ffffffff -Ms 7 -Mt 800 -Is 7.255 -Id -1.255 -It message -Il 90 -If 0 -Ii 13 -Iv 32 
N -t 1.278507 -n 15 -e 49.231456
N -t 1.278507 -n 6 -e 49.231528
N -t 1.278507 -n 16 -e 49.231456
N -t 1.278507 -n 9 -e 49.231600
N -t 1.278507 -n 1 -e 49.231456
N -t 1.278507 -n 8 -e 49.231456
N -t 1.278507 -n 2 -e 49.231456
N -t 1.278508 -n 5 -e 49.231743
N -t 1.278508 -n 17 -e 49.231599
N -t 1.278508 -n 4 -e 49.231599
N -t 1.278508 -n 14 -e 49.231815
N -t 1.278508 -n 13 -e 49.231527
N -t 1.278508 -n 3 -e 49.231743
N -t 1.278508 -n 10 -e 49.231671
N -t 1.278508 -n 0 -e 49.231743
N -t 1.278508 -n 11 -e 49.231815
r -t 1.279227136 -Hs 15 -Hd -1 -Ni 15 -Nx 628.00 -Ny 514.00 -Nz 0.00 -Ne 49.231456 -Nl MAC -Nw --- -Ma 0 -Md ffffffff -Ms 7 -Mt 800 -Is 7.255 -Id -1.255 -It message -Il 32 -If 0 -Ii 13 -Iv 32 
r -t 1.279227213 -Hs 6 -Hd -1 -Ni 6 -Nx 593.00 -Ny 355.00 -Nz 0.00 -Ne 49.231528 -Nl MAC -Nw --- -Ma 0 -Md ffffffff -Ms 7 -Mt 800 -Is 7.255 -Id -1.255 -It message -Il 32 -If 0 -Ii 13 -Iv 32 
r -t 1.279227245 -Hs 16 -Hd -1 -Ni 16 -Nx 779.00 -Ny 241.00 -Nz 0.00 -Ne 49.231456 -Nl MAC -Nw --- -Ma 0 -Md ffffffff -Ms 7 -Mt 800 -Is 7.255 -Id -1.255 -It message -Il 32 -If 0 -Ii 13 -Iv 32 
r -t 1.279227290 -Hs 9 -Hd -1 -Ni 9 -Nx 919.00 -Ny 310.00 -Nz 0.00 -Ne 49.231600 -Nl MAC -Nw --- -Ma 0 -Md ffffffff -Ms 7 -Mt 800 -Is 7.255 -Id -1.255 -It message -Il 32 -If 0 -Ii 13 -Iv 32 
r -t 1.279227313 -Hs 1 -Hd -1 -Ni 1 -Nx 682.00 -Ny 621.00 -Nz 0.00 -Ne 49.231456 -Nl MAC -Nw --- -Ma 0 -Md ffffffff -Ms 7 -Mt 800 -Is 7.255 -Id -1.255 -It message -Il 32 -If 0 -Ii 13 -Iv 32 
r -t 1.279227348 -Hs 8 -Hd -1 -Ni 8 -Nx 971.00 -Ny 462.00 -Nz 0.00 -Ne 49.231456 -Nl MAC -Nw --- -Ma 0 -Md ffffffff -Ms 7 -Mt 800 -Is 7.255 -Id -1.255 -It message -Il 32 -If 0 -Ii 13 -Iv 32 
r -t 1.279227364 -Hs 2 -Hd -1 -Ni 2 -Nx 856.00 -Ny 626.00 -Nz 0.00 -Ne 49.231456 -Nl MAC -Nw --- -Ma 0 -Md ffffffff -Ms 7 -Mt 800 -Is 7.255 -Id -1.255 -It message -Il 32 -If 0 -Ii 13 -Iv 32 