n -t * -s 0  -x 357 -y 618 -Z 0 -z 20  -v circle -c green
n -t * -s 1  -x 682 -y 621 -Z 0 -z 20  -v circle -c green
n -t * -s 2  -x 856 -y 626 -Z 0 -z 20  -v circle -c green
n -t * -s 3  -x 1059 -y 608 -Z 0 -z 20  -v circle -c green
n -t * -s 4  -x 489 -y 629 -Z 0 -z 20  -v circle -c green
n -t * -s 5  -x 439 -y 490 -Z 0 -z 20  -v circle -c green
n -t * -s 6  -x 593 -y 355 -Z 0 -z 20  -v circle -c green
n -t * -s 7  -x 758 -y 428 -Z 0 -z 20  -v circle -c green
n -t * -s 8  -x 971 -y 462 -Z 0 -z 20  -v circle -c green
n -t * -s 9  -x 919 -y 310 -Z 0 -z 20  -v circle -c green
n -t * -s 10  -x 1161 -y 380 -Z 0 -z 20  -v circle -c green
n -t * -s 11  -x 1249 -y 502 -Z 0 -z 20  -v circle -c green
n -t * -s 12  -x 1265 -y 652 -Z 0 -z 20  -v circle -c green
n -t * -s 13  -x 1048 -y 241 -Z 0 -z 20  -v circle -c green
n -t * -s 14  -x 423 -y 354 -Z 0 -z 20  -v circle -c green
n -t * -s 15  -x 628 -y 514 -Z 0 -z 20  -v circle -c green
n -t * -s 16  -x 779 -y 241 -Z 0 -z 20  -v circle -c green
n -t * -s 17  -x 520 -y 190 -Z 0 -z 20  -v circle -c green
V -t * -v 1.0a5 -a 0
W -t * -x 1505 -y 600
A -t * -n 1 -p 0 -o 0x7fffffff -c 30 -a 1
A -t * -h 1 -m 1073741823 -s 0
n -t 1.000000 -s 7 -x 758.000000 -y 428.000000 -U -8.958117 -V -4.444337 -T 28.800694
+ -t 1.000000000 -s 5 -d -1 -p tcp -e 40 -c 2 -a 0 -i 0 -k AGT 
- -t 1.000000000 -s 5 -d -1 -p tcp -e 40 -c 2 -a 0 -i 0 -k AGT
h -t 1.000000000 -s 5 -d -1 -p tcp -e 40 -c 2 -a 0 -i 0 -k AGT
+ -t 1.006524281 -s 5 -d -1 -p DSR -e 32 -c 2 -a 0 -i 1 -k RTR 
- -t 1.006524281 -s 5 -d -1 -p DSR -e 32 -c 2 -a 0 -i 1 -k RTR
h -t 1.006524281 -s 5 -d -1 -p DSR -e 32 -c 2 -a 0 -i 1 -k RTR
+ -t 1.006779281 -s 5 -d -1 -p DSR -e 90 -c 2 -a 0 -i 1 -k MAC 
- -t 1.006779281 -s 5 -d -1 -p DSR -e 90 -c 2 -a 0 -i 1 -k MAC
h -t 1.006779281 -s 5 -d -1 -p DSR -e 90 -c 2 -a 0 -i 1 -k MAC
r -t 1.007499738 -s 14 -d -1 -p DSR -e 32 -c 2 -a 0 -i 1 -k MAC
r -t 1.007499774 -s 4 -d -1 -p DSR -e 32 -c 2 -a 0 -i 1 -k MAC
r -t 1.007499788 -s 0 -d -1 -p DSR -e 32 -c 2 -a 0 -i 1 -k MAC
r -t 1.007499916 -s 15 -d -1 -p DSR -e 32 -c 2 -a 0 -i 1 -k MAC
r -t 1.007499964 -s 6 -d -1 -p DSR -e 32 -c 2 -a 0 -i 1 -k MAC
+ -t 1.072780442 -s 5 -d -1 -p DSR -e 32 -c 2 -a 0 -i 3 -k RTR 
- -t 1.072780442 -s 5 -d -1 -p DSR -e 32 -c 2 -a 0 -i 3 -k RTR
h -t 1.072780442 -s 5 -d -1 -p DSR -e 32 -c 2 -a 0 -i 3 -k RTR
+ -t 1.072895442 -s 5 -d -1 -p DSR -e 90 -c 2 -a 0 -i 3 -k MAC 
- -t 1.072895442 -s 5 -d -1 -p DSR -e 90 -c 2 -a 0 -i 3 -k MAC
h -t 1.072895442 -s 5 -d -1 -p DSR -e 90 -c 2 -a 0 -i 3 -k MAC
r -t 1.073615899 -s 14 -d -1 -p DSR -e 32 -c 2 -a 0 -i 3 -k MAC
r -t 1.073615935 -s 4 -d -1 -p DSR -e 32 -c 2 -a 0 -i 3 -k MAC
r -t 1.073615949 -s 0 -d -1 -p DSR -e 32 -c 2 -a 0 -i 3 -k MAC
r -t 1.073616078 -s 15 -d -1 -p DSR -e 32 -c 2 -a 0 -i 3 -k MAC
r -t 1.073616125 -s 6 -d -1 -p DSR -e 32 -c 2 -a 0 -i 3 -k MAC
+ -t 1.074299693 -s 0 -d -1 -p DSR -e 48 -c 2 -a 0 -i 3 -k RTR 
- -t 1.074299693 -s 0 -d -1 -p DSR -e 48 -c 2 -a 0 -i 3 -k RTR
h -t 1.074299693 -s 0 -d -1 -p DSR -e 48 -c 2 -a 0 -i 3 -k RTR
+ -t 1.074914693 -s 0 -d -1 -p DSR -e 106 -c 2 -a 0 -i 3 -k MAC 
- -t 1.074914693 -s 0 -d -1 -p DSR -e 106 -c 2 -a 0 -i 3 -k MAC
h -t 1.074914693 -s 0 -d -1 -p DSR -e 106 -c 2 -a 0 -i 3 -k MAC
+ -t 1.075034472 -s 15 -d -1 -p DSR -e 48 -c 2 -a 0 -i 3 -k RTR 
- -t 1.075034472 -s 15 -d -1 -p DSR -e 48 -c 2 -a 0 -i 3 -k RTR
h -t 1.075034472 -s 15 -d -1 -p DSR -e 48 -c 2 -a 0 -i 3 -k RTR
r -t 1.075763135 -s 4 -d -1 -p DSR -e 48 -c 2 -a 0 -i 3 -k MAC
r -t 1.075763200 -s 5 -d -1 -p DSR -e 48 -c 2 -a 0 -i 3 -k MAC
+ -t 1.076277661 -s 15 -d -1 -p DSR -e 106 -c 2 -a 0 -i 3 -k MAC 
- -t 1.076277661 -s 15 -d -1 -p DSR -e 106 -c 2 -a 0 -i 3 -k MAC
h -t 1.076277661 -s 15 -d -1 -p DSR -e 106 -c 2 -a 0 -i 3 -k MAC
r -t 1.077126061 -s 1 -d -1 -p DSR -e 48 -c 2 -a 0 -i 3 -k MAC
r -t 1.077126179 -s 7 -d -1 -p DSR -e 48 -c 2 -a 0 -i 3 -k MAC
r -t 1.077126204 -s 6 -d -1 -p DSR -e 48 -c 2 -a 0 -i 3 -k MAC
r -t 1.077126262 -s 4 -d -1 -p DSR -e 48 -c 2 -a 0 -i 3 -k MAC
r -t 1.077126296 -s 5 -d -1 -p DSR -e 48 -c 2 -a 0 -i 3 -k MAC
+ -t 1.079282571 -s 6 -d -1 -p DSR -e 48 -c 2 -a 0 -i 3 -k RTR 
- -t 1.079282571 -s 6 -d -1 -p DSR -e 48 -c 2 -a 0 -i 3 -k RTR
h -t 1.079282571 -s 6 -d -1 -p DSR -e 48 -c 2 -a 0 -i 3 -k RTR
+ -t 1.079837571 -s 6 -d -1 -p DSR -e 106 -c 2 -a 0 -i 3 -k MAC 
- -t 1.079837571 -s 6 -d -1 -p DSR -e 106 -c 2 -a 0 -i 3 -k MAC
h -t 1.079837571 -s 6 -d -1 -p DSR -e 106 -c 2 -a 0 -i 3 -k MAC
r -t 1.080686114 -s 15 -d -1 -p DSR -e 48 -c 2 -a 0 -i 3 -k MAC
r -t 1.080686137 -s 14 -d -1 -p DSR -e 48 -c 2 -a 0 -i 3 -k MAC
r -t 1.080686170 -s 7 -d -1 -p DSR -e 48 -c 2 -a 0 -i 3 -k MAC
r -t 1.080686172 -s 17 -d -1 -p DSR -e 48 -c 2 -a 0 -i 3 -k MAC
r -t 1.080686253 -s 5 -d -1 -p DSR -e 48 -c 2 -a 0 -i 3 -k MAC
r -t 1.080686298 -s 16 -d -1 -p DSR -e 48 -c 2 -a 0 -i 3 -k MAC
+ -t 1.081534867 -s 4 -d -1 -p DSR -e 48 -c 2 -a 0 -i 3 -k RTR 
- -t 1.081534867 -s 4 -d -1 -p DSR -e 48 -c 2 -a 0 -i 3 -k RTR
h -t 1.081534867 -s 4 -d -1 -p DSR -e 48 -c 2 -a 0 -i 3 -k RTR
+ -t 1.081717241 -s 14 -d -1 -p DSR -e 48 -c 2 -a 0 -i 3 -k RTR 
- -t 1.081717241 -s 14 -d -1 -p DSR -e 48 -c 2 -a 0 -i 3 -k RTR
h -t 1.081717241 -s 14 -d -1 -p DSR -e 48 -c 2 -a 0 -i 3 -k RTR
+ -t 1.081829867 -s 4 -d -1 -p DSR -e 106 -c 2 -a 0 -i 3 -k MAC 
- -t 1.081829867 -s 4 -d -1 -p DSR -e 106 -c 2 -a 0 -i 3 -k MAC
h -t 1.081829867 -s 4 -d -1 -p DSR -e 106 -c 2 -a 0 -i 3 -k MAC
r -t 1.082678308 -s 0 -d -1 -p DSR -e 48 -c 2 -a 0 -i 3 -k MAC
r -t 1.082678359 -s 5 -d -1 -p DSR -e 48 -c 2 -a 0 -i 3 -k MAC
r -t 1.082678468 -s 15 -d -1 -p DSR -e 48 -c 2 -a 0 -i 3 -k MAC
r -t 1.082678511 -s 1 -d -1 -p DSR -e 48 -c 2 -a 0 -i 3 -k MAC
+ -t 1.082973827 -s 7 -d -1 -p DSR -e 68 -c 2 -a 0 -i 3 -k RTR 
- -t 1.082973827 -s 7 -d -1 -p DSR -e 68 -c 2 -a 0 -i 3 -k RTR
h -t 1.082973827 -s 7 -d -1 -p DSR -e 68 -c 2 -a 0 -i 3 -k RTR
+ -t 1.083292985 -s 7 -d -1 -p DSR -e 126 -c 2 -a 0 -i 3 -k MAC 
- -t 1.083292985 -s 7 -d -1 -p DSR -e 126 -c 2 -a 0 -i 3 -k MAC
h -t 1.083292985 -s 7 -d -1 -p DSR -e 126 -c 2 -a 0 -i 3 -k MAC
r -t 1.084301503 -s 15 -d -1 -p DSR -e 68 -c 2 -a 0 -i 3 -k MAC
r -t 1.084301583 -s 6 -d -1 -p DSR -e 68 -c 2 -a 0 -i 3 -k MAC
r -t 1.084301611 -s 16 -d -1 -p DSR -e 68 -c 2 -a 0 -i 3 -k MAC
r -t 1.084301651 -s 9 -d -1 -p DSR -e 68 -c 2 -a 0 -i 3 -k MAC
r -t 1.084301676 -s 1 -d -1 -p DSR -e 68 -c 2 -a 0 -i 3 -k MAC
r -t 1.084301706 -s 8 -d -1 -p DSR -e 68 -c 2 -a 0 -i 3 -k MAC
r -t 1.084301723 -s 2 -d -1 -p DSR -e 68 -c 2 -a 0 -i 3 -k MAC
+ -t 1.084736126 -s 14 -d -1 -p DSR -e 106 -c 2 -a 0 -i 3 -k MAC 
- -t 1.084736126 -s 14 -d -1 -p DSR -e 106 -c 2 -a 0 -i 3 -k MAC
h -t 1.084736126 -s 14 -d -1 -p DSR -e 106 -c 2 -a 0 -i 3 -k MAC
+ -t 1.084846793 -s 17 -d -1 -p DSR -e 68 -c 2 -a 0 -i 3 -k RTR 
- -t 1.084846793 -s 17 -d -1 -p DSR -e 68 -c 2 -a 0 -i 3 -k RTR
h -t 1.084846793 -s 17 -d -1 -p DSR -e 68 -c 2 -a 0 -i 3 -k RTR
+ -t 1.085421875 -s 16 -d -1 -p DSR -e 68 -c 2 -a 0 -i 3 -k RTR 
- -t 1.085421875 -s 16 -d -1 -p DSR -e 68 -c 2 -a 0 -i 3 -k RTR
h -t 1.085421875 -s 16 -d -1 -p DSR -e 68 -c 2 -a 0 -i 3 -k RTR
r -t 1.085584582 -s 5 -d -1 -p DSR -e 48 -c 2 -a 0 -i 3 -k MAC
r -t 1.085584692 -s 6 -d -1 -p DSR -e 48 -c 2 -a 0 -i 3 -k MAC
r -t 1.085584761 -s 17 -d -1 -p DSR -e 48 -c 2 -a 0 -i 3 -k MAC
+ -t 1.085894875 -s 1 -d -1 -p DSR -e 68 -c 2 -a 0 -i 3 -k RTR 
- -t 1.085894875 -s 1 -d -1 -p DSR -e 68 -c 2 -a 0 -i 3 -k RTR
h -t 1.085894875 -s 1 -d -1 -p DSR -e 68 -c 2 -a 0 -i 3 -k RTR
+ -t 1.086234761 -s 17 -d -1 -p DSR -e 126 -c 2 -a 0 -i 3 -k MAC 
- -t 1.086234761 -s 17 -d -1 -p DSR -e 126 -c 2 -a 0 -i 3 -k MAC
h -t 1.086234761 -s 17 -d -1 -p DSR -e 126 -c 2 -a 0 -i 3 -k MAC
r -t 1.087243362 -s 6 -d -1 -p DSR -e 68 -c 2 -a 0 -i 3 -k MAC
r -t 1.087243396 -s 14 -d -1 -p DSR -e 68 -c 2 -a 0 -i 3 -k MAC
+ -t 1.087738296 -s 1 -d -1 -p DSR -e 126 -c 2 -a 0 -i 3 -k MAC 
- -t 1.087738296 -s 1 -d -1 -p DSR -e 126 -c 2 -a 0 -i 3 -k MAC
h -t 1.087738296 -s 1 -d -1 -p DSR -e 126 -c 2 -a 0 -i 3 -k MAC
r -t 1.088746695 -s 15 -d -1 -p DSR -e 68 -c 2 -a 0 -i 3 -k MAC
r -t 1.088746876 -s 2 -d -1 -p DSR -e 68 -c 2 -a 0 -i 3 -k MAC
r -t 1.088746940 -s 4 -d -1 -p DSR -e 68 -c 2 -a 0 -i 3 -k MAC
r -t 1.088746987 -s 7 -d -1 -p DSR -e 68 -c 2 -a 0 -i 3 -k MAC
+ -t 1.089321603 -s 16 -d -1 -p DSR -e 126 -c 2 -a 0 -i 3 -k MAC 
- -t 1.089321603 -s 16 -d -1 -p DSR -e 126 -c 2 -a 0 -i 3 -k MAC
h -t 1.089321603 -s 16 -d -1 -p DSR -e 126 -c 2 -a 0 -i 3 -k MAC
+ -t 1.090199932 -s 8 -d -1 -p DSR -e 92 -c 2 -a 0 -i 3 -k RTR 
- -t 1.090199932 -s 8 -d -1 -p DSR -e 92 -c 2 -a 0 -i 3 -k RTR
h -t 1.090199932 -s 8 -d -1 -p DSR -e 92 -c 2 -a 0 -i 3 -k RTR
r -t 1.090330123 -s 9 -d -1 -p DSR -e 68 -c 2 -a 0 -i 3 -k MAC
r -t 1.090330229 -s 7 -d -1 -p DSR -e 68 -c 2 -a 0 -i 3 -k MAC
r -t 1.090330330 -s 6 -d -1 -p DSR -e 68 -c 2 -a 0 -i 3 -k MAC
+ -t 1.091344579 -s 8 -d -1 -p DSR -e 150 -c 2 -a 0 -i 3 -k MAC 
- -t 1.091344579 -s 8 -d -1 -p DSR -e 150 -c 2 -a 0 -i 3 -k MAC
h -t 1.091344579 -s 8 -d -1 -p DSR -e 150 -c 2 -a 0 -i 3 -k MAC
+ -t 1.092521473 -s 9 -d -1 -p DSR -e 92 -c 2 -a 0 -i 3 -k RTR 
- -t 1.092521473 -s 9 -d -1 -p DSR -e 92 -c 2 -a 0 -i 3 -k RTR
h -t 1.092521473 -s 9 -d -1 -p DSR -e 92 -c 2 -a 0 -i 3 -k RTR
r -t 1.092545114 -s 9 -d -1 -p DSR -e 92 -c 2 -a 0 -i 3 -k MAC
r -t 1.092545147 -s 3 -d -1 -p DSR -e 92 -c 2 -a 0 -i 3 -k MAC
r -t 1.092545246 -s 2 -d -1 -p DSR -e 92 -c 2 -a 0 -i 3 -k MAC
r -t 1.092545269 -s 10 -d -1 -p DSR -e 92 -c 2 -a 0 -i 3 -k MAC
r -t 1.092545301 -s 7 -d -1 -p DSR -e 92 -c 2 -a 0 -i 3 -k MAC
r -t 1.092545359 -s 13 -d -1 -p DSR -e 92 -c 2 -a 0 -i 3 -k MAC
+ -t 1.092736473 -s 9 -d -1 -p DSR -e 150 -c 2 -a 0 -i 3 -k MAC 
- -t 1.092736473 -s 9 -d -1 -p DSR -e 150 -c 2 -a 0 -i 3 -k MAC
h -t 1.092736473 -s 9 -d -1 -p DSR -e 150 -c 2 -a 0 -i 3 -k MAC
+ -t 1.093517740 -s 3 -d -1 -p DSR -e 120 -c 2 -a 0 -i 3 -k RTR 
- -t 1.093517740 -s 3 -d -1 -p DSR -e 120 -c 2 -a 0 -i 3 -k RTR
h -t 1.093517740 -s 3 -d -1 -p DSR -e 120 -c 2 -a 0 -i 3 -k RTR
+ -t 1.093524188 -s 2 -d -1 -p DSR -e 92 -c 2 -a 0 -i 3 -k RTR 
- -t 1.093524188 -s 2 -d -1 -p DSR -e 92 -c 2 -a 0 -i 3 -k RTR
h -t 1.093524188 -s 2 -d -1 -p DSR -e 92 -c 2 -a 0 -i 3 -k RTR
r -t 1.093936961 -s 13 -d -1 -p DSR -e 92 -c 2 -a 0 -i 3 -k MAC
r -t 1.093936993 -s 16 -d -1 -p DSR -e 92 -c 2 -a 0 -i 3 -k MAC
r -t 1.093937009 -s 8 -d -1 -p DSR -e 92 -c 2 -a 0 -i 3 -k MAC
r -t 1.093937140 -s 7 -d -1 -p DSR -e 92 -c 2 -a 0 -i 3 -k MAC
+ -t 1.094491571 -s 3 -d -1 -p DSR -e 178 -c 2 -a 0 -i 3 -k MAC 
- -t 1.094491571 -s 3 -d -1 -p DSR -e 178 -c 2 -a 0 -i 3 -k MAC
h -t 1.094491571 -s 3 -d -1 -p DSR -e 178 -c 2 -a 0 -i 3 -k MAC
r -t 1.095916139 -s 8 -d -1 -p DSR -e 120 -c 2 -a 0 -i 3 -k MAC
r -t 1.095916250 -s 2 -d -1 -p DSR -e 120 -c 2 -a 0 -i 3 -k MAC
r -t 1.095916273 -s 12 -d -1 -p DSR -e 120 -c 2 -a 0 -i 3 -k MAC
r -t 1.095916296 -s 11 -d -1 -p DSR -e 120 -c 2 -a 0 -i 3 -k MAC
r -t 1.095916403 -s 10 -d -1 -p DSR -e 120 -c 2 -a 0 -i 3 -k MAC
+ -t 1.096386250 -s 2 -d -1 -p DSR -e 150 -c 2 -a 0 -i 3 -k MAC 
- -t 1.096386250 -s 2 -d -1 -p DSR -e 150 -c 2 -a 0 -i 3 -k MAC
h -t 1.096386250 -s 2 -d -1 -p DSR -e 150 -c 2 -a 0 -i 3 -k MAC
+ -t 1.096817388 -s 13 -d -1 -p DSR -e 120 -c 2 -a 0 -i 3 -k RTR 
- -t 1.096817388 -s 13 -d -1 -p DSR -e 120 -c 2 -a 0 -i 3 -k RTR
h -t 1.096817388 -s 13 -d -1 -p DSR -e 120 -c 2 -a 0 -i 3 -k RTR
r -t 1.097586830 -s 1 -d -1 -p DSR -e 92 -c 2 -a 0 -i 3 -k MAC
r -t 1.097586918 -s 8 -d -1 -p DSR -e 92 -c 2 -a 0 -i 3 -k MAC
r -t 1.097586929 -s 3 -d -1 -p DSR -e 92 -c 2 -a 0 -i 3 -k MAC
r -t 1.097586989 -s 7 -d -1 -p DSR -e 92 -c 2 -a 0 -i 3 -k MAC
+ -t 1.097977936 -s 10 -d -1 -p DSR -e 120 -c 2 -a 0 -i 3 -k RTR 
- -t 1.097977936 -s 10 -d -1 -p DSR -e 120 -c 2 -a 0 -i 3 -k RTR
h -t 1.097977936 -s 10 -d -1 -p DSR -e 120 -c 2 -a 0 -i 3 -k RTR
+ -t 1.098401684 -s 13 -d -1 -p DSR -e 178 -c 2 -a 0 -i 3 -k MAC 
- -t 1.098401684 -s 13 -d -1 -p DSR -e 178 -c 2 -a 0 -i 3 -k MAC
h -t 1.098401684 -s 13 -d -1 -p DSR -e 178 -c 2 -a 0 -i 3 -k MAC
r -t 1.099826172 -s 9 -d -1 -p DSR -e 120 -c 2 -a 0 -i 3 -k MAC
r -t 1.099826281 -s 10 -d -1 -p DSR -e 120 -c 2 -a 0 -i 3 -k MAC
r -t 1.099826464 -s 8 -d -1 -p DSR -e 120 -c 2 -a 0 -i 3 -k MAC
+ -t 1.100096281 -s 10 -d -1 -p DSR -e 178 -c 2 -a 0 -i 3 -k MAC 
- -t 1.100096281 -s 10 -d -1 -p DSR -e 178 -c 2 -a 0 -i 3 -k MAC
h -t 1.100096281 -s 10 -d -1 -p DSR -e 178 -c 2 -a 0 -i 3 -k MAC
r -t 1.101520783 -s 11 -d -1 -p DSR -e 120 -c 2 -a 0 -i 3 -k MAC
r -t 1.101520878 -s 13 -d -1 -p DSR -e 120 -c 2 -a 0 -i 3 -k MAC
r -t 1.101520971 -s 8 -d -1 -p DSR -e 120 -c 2 -a 0 -i 3 -k MAC
r -t 1.101521114 -s 3 -d -1 -p DSR -e 120 -c 2 -a 0 -i 3 -k MAC
+ -t 1.102438264 -s 11 -d 10 -p DSR -e 76 -c 2 -a 0 -i 6 -k RTR 
- -t 1.102438264 -s 11 -d 10 -p DSR -e 76 -c 2 -a 0 -i 6 -k RTR
h -t 1.102438264 -s 11 -d 10 -p DSR -e 76 -c 2 -a 0 -i 6 -k RTR
+ -t 1.103013264 -s 11 -d -1 -p ARP -e 86 -c 2 -a 0 -i 0 -k MAC 
- -t 1.103013264 -s 11 -d -1 -p ARP -e 86 -c 2 -a 0 -i 0 -k MAC
h -t 1.103013264 -s 11 -d -1 -p ARP -e 86 -c 2 -a 0 -i 0 -k MAC
r -t 1.103701766 -s 10 -d -1 -p ARP -e 28 -c 2 -a 0 -i 0 -k MAC
r -t 1.103701767 -s 12 -d -1 -p ARP -e 28 -c 2 -a 0 -i 0 -k MAC
r -t 1.103701989 -s 3 -d -1 -p ARP -e 28 -c 2 -a 0 -i 0 -k MAC
+ -t 1.103756766 -s 10 -d -1 -p RTS -e 44 -c 2 -a 0 -i 0 -k MAC 
- -t 1.103756766 -s 10 -d -1 -p RTS -e 44 -c 2 -a 0 -i 0 -k MAC
h -t 1.103756766 -s 10 -d -1 -p RTS -e 44 -c 2 -a 0 -i 0 -k MAC
+ -t 1.103846196 -s 12 -d -1 -p DSR -e 152 -c 2 -a 0 -i 3 -k RTR 
- -t 1.103846196 -s 12 -d -1 -p DSR -e 152 -c 2 -a 0 -i 3 -k RTR
h -t 1.103846196 -s 12 -d -1 -p DSR -e 152 -c 2 -a 0 -i 3 -k RTR
r -t 1.104109267 -s 11 -d -1 -p RTS -e 44 -c 2 -a 0 -i 0 -k MAC
+ -t 1.104119267 -s 11 -d -1 -p CTS -e 38 -c 2 -a 0 -i 0 -k MAC 
- -t 1.104119267 -s 11 -d -1 -p CTS -e 38 -c 2 -a 0 -i 0 -k MAC
h -t 1.104119267 -s 11 -d -1 -p CTS -e 38 -c 2 -a 0 -i 0 -k MAC
r -t 1.104423768 -s 10 -d -1 -p CTS -e 38 -c 2 -a 0 -i 0 -k MAC
+ -t 1.104433768 -s 10 -d -1 -p ARP -e 86 -c 2 -a 0 -i 0 -k MAC 
- -t 1.104433768 -s 10 -d -1 -p ARP -e 86 -c 2 -a 0 -i 0 -k MAC
h -t 1.104433768 -s 10 -d -1 -p ARP -e 86 -c 2 -a 0 -i 0 -k MAC
r -t 1.105122270 -s 11 -d -1 -p ARP -e 28 -c 2 -a 0 -i 0 -k MAC
+ -t 1.105132270 -s 11 -d -1 -p ACK -e 38 -c 2 -a 0 -i 0 -k MAC 
- -t 1.105132270 -s 11 -d -1 -p ACK -e 38 -c 2 -a 0 -i 0 -k MAC
h -t 1.105132270 -s 11 -d -1 -p ACK -e 38 -c 2 -a 0 -i 0 -k MAC
r -t 1.105436771 -s 10 -d -1 -p ACK -e 38 -c 2 -a 0 -i 0 -k MAC
+ -t 1.105646270 -s 11 -d -1 -p RTS -e 44 -c 2 -a 0 -i 0 -k MAC 
- -t 1.105646270 -s 11 -d -1 -p RTS -e 44 -c 2 -a 0 -i 0 -k MAC
h -t 1.105646270 -s 11 -d -1 -p RTS -e 44 -c 2 -a 0 -i 0 -k MAC
+ -t 1.105850670 -s 11 -d 3 -p DSR -e 76 -c 2 -a 0 -i 4 -k RTR 
- -t 1.105850670 -s 11 -d 3 -p DSR -e 76 -c 2 -a 0 -i 4 -k RTR
h -t 1.105850670 -s 11 -d 3 -p DSR -e 76 -c 2 -a 0 -i 4 -k RTR
r -t 1.105998771 -s 10 -d -1 -p RTS -e 44 -c 2 -a 0 -i 0 -k MAC
+ -t 1.106008771 -s 10 -d -1 -p CTS -e 38 -c 2 -a 0 -i 0 -k MAC 
- -t 1.106008771 -s 10 -d -1 -p CTS -e 38 -c 2 -a 0 -i 0 -k MAC
h -t 1.106008771 -s 10 -d -1 -p CTS -e 38 -c 2 -a 0 -i 0 -k MAC
r -t 1.106313273 -s 11 -d -1 -p CTS -e 38 -c 2 -a 0 -i 0 -k MAC
+ -t 1.106323273 -s 11 -d 10 -p DSR -e 134 -c 2 -a 0 -i 6 -k MAC 
- -t 1.106323273 -s 11 -d 10 -p DSR -e 134 -c 2 -a 0 -i 6 -k MAC
h -t 1.106323273 -s 11 -d 10 -p DSR -e 134 -c 2 -a 0 -i 6 -k MAC
r -t 1.107395774 -s 10 -d 10 -p DSR -e 76 -c 2 -a 0 -i 6 -k MAC
+ -t 1.107405774 -s 10 -d -1 -p ACK -e 38 -c 2 -a 0 -i 0 -k MAC 
- -t 1.107405774 -s 10 -d -1 -p ACK -e 38 -c 2 -a 0 -i 0 -k MAC
h -t 1.107405774 -s 10 -d -1 -p ACK -e 38 -c 2 -a 0 -i 0 -k MAC
+ -t 1.107420774 -s 10 -d 8 -p DSR -e 76 -c 2 -a 0 -i 6 -k RTR 
- -t 1.107420774 -s 10 -d 8 -p DSR -e 76 -c 2 -a 0 -i 6 -k RTR
h -t 1.107420774 -s 10 -d 8 -p DSR -e 76 -c 2 -a 0 -i 6 -k RTR
r -t 1.107710276 -s 11 -d -1 -p ACK -e 38 -c 2 -a 0 -i 0 -k MAC
+ -t 1.107799774 -s 10 -d -1 -p ARP -e 86 -c 2 -a 0 -i 0 -k MAC 
- -t 1.107799774 -s 10 -d -1 -p ARP -e 86 -c 2 -a 0 -i 0 -k MAC
h -t 1.107799774 -s 10 -d -1 -p ARP -e 86 -c 2 -a 0 -i 0 -k MAC
r -t 1.108488276 -s 11 -d -1 -p ARP -e 28 -c 2 -a 0 -i 0 -k MAC
r -t 1.108488371 -s 13 -d -1 -p ARP -e 28 -c 2 -a 0 -i 0 -k MAC
r -t 1.108488464 -s 8 -d -1 -p ARP -e 28 -c 2 -a 0 -i 0 -k MAC
r -t 1.108488607 -s 3 -d -1 -p ARP -e 28 -c 2 -a 0 -i 0 -k MAC
+ -t 1.108923464 -s 8 -d -1 -p RTS -e 44 -c 2 -a 0 -i 0 -k MAC 
- -t 1.108923464 -s 8 -d -1 -p RTS -e 44 -c 2 -a 0 -i 0 -k MAC
h -t 1.108923464 -s 8 -d -1 -p RTS -e 44 -c 2 -a 0 -i 0 -k MAC
r -t 1.109276154 -s 10 -d -1 -p RTS -e 44 -c 2 -a 0 -i 0 -k MAC
+ -t 1.109286154 -s 10 -d -1 -p CTS -e 38 -c 2 -a 0 -i 0 -k MAC 
- -t 1.109286154 -s 10 -d -1 -p CTS -e 38 -c 2 -a 0 -i 0 -k MAC
h -t 1.109286154 -s 10 -d -1 -p CTS -e 38 -c 2 -a 0 -i 0 -k MAC
r -t 1.109590843 -s 8 -d -1 -p CTS -e 38 -c 2 -a 0 -i 0 -k MAC
+ -t 1.109600843 -s 8 -d -1 -p ARP -e 86 -c 2 -a 0 -i 0 -k MAC 
- -t 1.109600843 -s 8 -d -1 -p ARP -e 86 -c 2 -a 0 -i 0 -k MAC
h -t 1.109600843 -s 8 -d -1 -p ARP -e 86 -c 2 -a 0 -i 0 -k MAC
r -t 1.110289533 -s 10 -d -1 -p ARP -e 28 -c 2 -a 0 -i 0 -k MAC
+ -t 1.110299533 -s 10 -d -1 -p ACK -e 38 -c 2 -a 0 -i 0 -k MAC 
- -t 1.110299533 -s 10 -d -1 -p ACK -e 38 -c 2 -a 0 -i 0 -k MAC
h -t 1.110299533 -s 10 -d -1 -p ACK -e 38 -c 2 -a 0 -i 0 -k MAC
r -t 1.110604223 -s 8 -d -1 -p ACK -e 38 -c 2 -a 0 -i 0 -k MAC
+ -t 1.110843780 -s 11 -d -1 -p ARP -e 86 -c 2 -a 0 -i 0 -k MAC 
- -t 1.110843780 -s 11 -d -1 -p ARP -e 86 -c 2 -a 0 -i 0 -k MAC
h -t 1.110843780 -s 11 -d -1 -p ARP -e 86 -c 2 -a 0 -i 0 -k MAC
r -t 1.111532281 -s 10 -d -1 -p ARP -e 28 -c 2 -a 0 -i 0 -k MAC
r -t 1.111532283 -s 12 -d -1 -p ARP -e 28 -c 2 -a 0 -i 0 -k MAC
r -t 1.111532505 -s 3 -d -1 -p ARP -e 28 -c 2 -a 0 -i 0 -k MAC
+ -t 1.111622281 -s 10 -d -1 -p RTS -e 44 -c 2 -a 0 -i 0 -k MAC 
- -t 1.111622281 -s 10 -d -1 -p RTS -e 44 -c 2 -a 0 -i 0 -k MAC
h -t 1.111622281 -s 10 -d -1 -p RTS -e 44 -c 2 -a 0 -i 0 -k MAC
r -t 1.111974971 -s 8 -d -1 -p RTS -e 44 -c 2 -a 0 -i 0 -k MAC
+ -t 1.111984971 -s 8 -d -1 -p CTS -e 38 -c 2 -a 0 -i 0 -k MAC 
- -t 1.111984971 -s 8 -d -1 -p CTS -e 38 -c 2 -a 0 -i 0 -k MAC
h -t 1.111984971 -s 8 -d -1 -p CTS -e 38 -c 2 -a 0 -i 0 -k MAC
r -t 1.112289661 -s 10 -d -1 -p CTS -e 38 -c 2 -a 0 -i 0 -k MAC
+ -t 1.112299661 -s 10 -d 8 -p DSR -e 134 -c 2 -a 0 -i 6 -k MAC 
- -t 1.112299661 -s 10 -d 8 -p DSR -e 134 -c 2 -a 0 -i 6 -k MAC
h -t 1.112299661 -s 10 -d 8 -p DSR -e 134 -c 2 -a 0 -i 6 -k MAC
r -t 1.113372351 -s 8 -d 8 -p DSR -e 76 -c 2 -a 0 -i 6 -k MAC
+ -t 1.113382351 -s 8 -d -1 -p ACK -e 38 -c 2 -a 0 -i 0 -k MAC 
- -t 1.113382351 -s 8 -d -1 -p ACK -e 38 -c 2 -a 0 -i 0 -k MAC
h -t 1.113382351 -s 8 -d -1 -p ACK -e 38 -c 2 -a 0 -i 0 -k MAC
+ -t 1.113397351 -s 8 -d 7 -p DSR -e 76 -c 2 -a 0 -i 6 -k RTR 
- -t 1.113397351 -s 8 -d 7 -p DSR -e 76 -c 2 -a 0 -i 6 -k RTR
h -t 1.113397351 -s 8 -d 7 -p DSR -e 76 -c 2 -a 0 -i 6 -k RTR
r -t 1.113687040 -s 10 -d -1 -p ACK -e 38 -c 2 -a 0 -i 0 -k MAC
+ -t 1.113836919 -s 3 -d -1 -p RTS -e 44 -c 2 -a 0 -i 0 -k MAC 
- -t 1.113836919 -s 3 -d -1 -p RTS -e 44 -c 2 -a 0 -i 0 -k MAC
h -t 1.113836919 -s 3 -d -1 -p RTS -e 44 -c 2 -a 0 -i 0 -k MAC
r -t 1.114189644 -s 11 -d -1 -p RTS -e 44 -c 2 -a 0 -i 0 -k MAC
+ -t 1.114199644 -s 11 -d -1 -p CTS -e 38 -c 2 -a 0 -i 0 -k MAC 
- -t 1.114199644 -s 11 -d -1 -p CTS -e 38 -c 2 -a 0 -i 0 -k MAC
h -t 1.114199644 -s 11 -d -1 -p CTS -e 38 -c 2 -a 0 -i 0 -k MAC
r -t 1.114504369 -s 3 -d -1 -p CTS -e 38 -c 2 -a 0 -i 0 -k MAC
+ -t 1.114514369 -s 3 -d -1 -p ARP -e 86 -c 2 -a 0 -i 0 -k MAC 
- -t 1.114514369 -s 3 -d -1 -p ARP -e 86 -c 2 -a 0 -i 0 -k MAC
h -t 1.114514369 -s 3 -d -1 -p ARP -e 86 -c 2 -a 0 -i 0 -k MAC
r -t 1.115203094 -s 11 -d -1 -p ARP -e 28 -c 2 -a 0 -i 0 -k MAC
+ -t 1.115213094 -s 11 -d -1 -p ACK -e 38 -c 2 -a 0 -i 0 -k MAC 
- -t 1.115213094 -s 11 -d -1 -p ACK -e 38 -c 2 -a 0 -i 0 -k MAC
h -t 1.115213094 -s 11 -d -1 -p ACK -e 38 -c 2 -a 0 -i 0 -k MAC
r -t 1.115517820 -s 3 -d -1 -p ACK -e 38 -c 2 -a 0 -i 0 -k MAC
+ -t 1.115747094 -s 11 -d -1 -p RTS -e 44 -c 2 -a 0 -i 0 -k MAC 
- -t 1.115747094 -s 11 -d -1 -p RTS -e 44 -c 2 -a 0 -i 0 -k MAC
h -t 1.115747094 -s 11 -d -1 -p RTS -e 44 -c 2 -a 0 -i 0 -k MAC
r -t 1.116099820 -s 3 -d -1 -p RTS -e 44 -c 2 -a 0 -i 0 -k MAC
+ -t 1.116109820 -s 3 -d -1 -p CTS -e 38 -c 2 -a 0 -i 0 -k MAC 
- -t 1.116109820 -s 3 -d -1 -p CTS -e 38 -c 2 -a 0 -i 0 -k MAC
h -t 1.116109820 -s 3 -d -1 -p CTS -e 38 -c 2 -a 0 -i 0 -k MAC
r -t 1.116414545 -s 11 -d -1 -p CTS -e 38 -c 2 -a 0 -i 0 -k MAC
+ -t 1.116424545 -s 11 -d 3 -p DSR -e 134 -c 2 -a 0 -i 4 -k MAC 
- -t 1.116424545 -s 11 -d 3 -p DSR -e 134 -c 2 -a 0 -i 4 -k MAC
h -t 1.116424545 -s 11 -d 3 -p DSR -e 134 -c 2 -a 0 -i 4 -k MAC
r -t 1.117497270 -s 3 -d 3 -p DSR -e 76 -c 2 -a 0 -i 4 -k MAC
+ -t 1.117507270 -s 3 -d -1 -p ACK -e 38 -c 2 -a 0 -i 0 -k MAC 
- -t 1.117507270 -s 3 -d -1 -p ACK -e 38 -c 2 -a 0 -i 0 -k MAC
h -t 1.117507270 -s 3 -d -1 -p ACK -e 38 -c 2 -a 0 -i 0 -k MAC
+ -t 1.117522270 -s 3 -d 8 -p DSR -e 76 -c 2 -a 0 -i 4 -k RTR 
- -t 1.117522270 -s 3 -d 8 -p DSR -e 76 -c 2 -a 0 -i 4 -k RTR
h -t 1.117522270 -s 3 -d 8 -p DSR -e 76 -c 2 -a 0 -i 4 -k RTR
r -t 1.117811995 -s 11 -d -1 -p ACK -e 38 -c 2 -a 0 -i 0 -k MAC
+ -t 1.117921972 -s 12 -d -1 -p DSR -e 210 -c 2 -a 0 -i 3 -k MAC 
- -t 1.117921972 -s 12 -d -1 -p DSR -e 210 -c 2 -a 0 -i 3 -k MAC
h -t 1.117921972 -s 12 -d -1 -p DSR -e 210 -c 2 -a 0 -i 3 -k MAC
r -t 1.119602475 -s 11 -d -1 -p DSR -e 152 -c 2 -a 0 -i 3 -k MAC
r -t 1.119602674 -s 3 -d -1 -p DSR -e 152 -c 2 -a 0 -i 3 -k MAC
+ -t 1.119752674 -s 3 -d -1 -p ARP -e 86 -c 2 -a 0 -i 0 -k MAC 
- -t 1.119752674 -s 3 -d -1 -p ARP -e 86 -c 2 -a 0 -i 0 -k MAC
h -t 1.119752674 -s 3 -d -1 -p ARP -e 86 -c 2 -a 0 -i 0 -k MAC
r -t 1.120441243 -s 8 -d -1 -p ARP -e 28 -c 2 -a 0 -i 0 -k MAC
r -t 1.120441354 -s 2 -d -1 -p ARP -e 28 -c 2 -a 0 -i 0 -k MAC
r -t 1.120441377 -s 12 -d -1 -p ARP -e 28 -c 2 -a 0 -i 0 -k MAC
r -t 1.120441400 -s 11 -d -1 -p ARP -e 28 -c 2 -a 0 -i 0 -k MAC
r -t 1.120441507 -s 10 -d -1 -p ARP -e 28 -c 2 -a 0 -i 0 -k MAC
+ -t 1.120691243 -s 8 -d -1 -p ARP -e 86 -c 2 -a 0 -i 0 -k MAC 
- -t 1.120691243 -s 8 -d -1 -p ARP -e 86 -c 2 -a 0 -i 0 -k MAC
h -t 1.120691243 -s 8 -d -1 -p ARP -e 86 -c 2 -a 0 -i 0 -k MAC
r -t 1.121379778 -s 9 -d -1 -p ARP -e 28 -c 2 -a 0 -i 0 -k MAC
r -t 1.121379811 -s 3 -d -1 -p ARP -e 28 -c 2 -a 0 -i 0 -k MAC
r -t 1.121379910 -s 2 -d -1 -p ARP -e 28 -c 2 -a 0 -i 0 -k MAC
r -t 1.121379932 -s 10 -d -1 -p ARP -e 28 -c 2 -a 0 -i 0 -k MAC
r -t 1.121379965 -s 7 -d -1 -p ARP -e 28 -c 2 -a 0 -i 0 -k MAC
r -t 1.121380023 -s 13 -d -1 -p ARP -e 28 -c 2 -a 0 -i 0 -k MAC
+ -t 1.121634965 -s 7 -d -1 -p RTS -e 44 -c 2 -a 0 -i 0 -k MAC 
- -t 1.121634965 -s 7 -d -1 -p RTS -e 44 -c 2 -a 0 -i 0 -k MAC
h -t 1.121634965 -s 7 -d -1 -p RTS -e 44 -c 2 -a 0 -i 0 -k MAC
+ -t 1.121911004 -s 11 -d 12 -p DSR -e 84 -c 2 -a 0 -i 7 -k RTR 
- -t 1.121911004 -s 11 -d 12 -p DSR -e 84 -c 2 -a 0 -i 7 -k RTR
h -t 1.121911004 -s 11 -d 12 -p DSR -e 84 -c 2 -a 0 -i 7 -k RTR
r -t 1.121987688 -s 8 -d -1 -p RTS -e 44 -c 2 -a 0 -i 0 -k MAC
+ -t 1.121997688 -s 8 -d -1 -p CTS -e 38 -c 2 -a 0 -i 0 -k MAC 
- -t 1.121997688 -s 8 -d -1 -p CTS -e 38 -c 2 -a 0 -i 0 -k MAC
h -t 1.121997688 -s 8 -d -1 -p CTS -e 38 -c 2 -a 0 -i 0 -k MAC
r -t 1.122302411 -s 7 -d -1 -p CTS -e 38 -c 2 -a 0 -i 0 -k MAC
+ -t 1.122312411 -s 7 -d -1 -p ARP -e 86 -c 2 -a 0 -i 0 -k MAC 
- -t 1.122312411 -s 7 -d -1 -p ARP -e 86 -c 2 -a 0 -i 0 -k MAC
h -t 1.122312411 -s 7 -d -1 -p ARP -e 86 -c 2 -a 0 -i 0 -k MAC
r -t 1.123001134 -s 8 -d -1 -p ARP -e 28 -c 2 -a 0 -i 0 -k MAC
+ -t 1.123011134 -s 8 -d -1 -p ACK -e 38 -c 2 -a 0 -i 0 -k MAC 
- -t 1.123011134 -s 8 -d -1 -p ACK -e 38 -c 2 -a 0 -i 0 -k MAC
h -t 1.123011134 -s 8 -d -1 -p ACK -e 38 -c 2 -a 0 -i 0 -k MAC
r -t 1.123315857 -s 7 -d -1 -p ACK -e 38 -c 2 -a 0 -i 0 -k MAC
+ -t 1.123555584 -s 3 -d -1 -p RTS -e 44 -c 2 -a 0 -i 0 -k MAC 
- -t 1.123555584 -s 3 -d -1 -p RTS -e 44 -c 2 -a 0 -i 0 -k MAC
h -t 1.123555584 -s 3 -d -1 -p RTS -e 44 -c 2 -a 0 -i 0 -k MAC
r -t 1.123908153 -s 8 -d -1 -p RTS -e 44 -c 2 -a 0 -i 0 -k MAC
+ -t 1.123918153 -s 8 -d -1 -p CTS -e 38 -c 2 -a 0 -i 0 -k MAC 
- -t 1.123918153 -s 8 -d -1 -p CTS -e 38 -c 2 -a 0 -i 0 -k MAC
h -t 1.123918153 -s 8 -d -1 -p CTS -e 38 -c 2 -a 0 -i 0 -k MAC
r -t 1.124222721 -s 3 -d -1 -p CTS -e 38 -c 2 -a 0 -i 0 -k MAC
+ -t 1.124232721 -s 3 -d 8 -p DSR -e 134 -c 2 -a 0 -i 4 -k MAC 
- -t 1.124232721 -s 3 -d 8 -p DSR -e 134 -c 2 -a 0 -i 4 -k MAC
h -t 1.124232721 -s 3 -d 8 -p DSR -e 134 -c 2 -a 0 -i 4 -k MAC
r -t 1.125305289 -s 8 -d 8 -p DSR -e 76 -c 2 -a 0 -i 4 -k MAC
+ -t 1.125315289 -s 8 -d -1 -p ACK -e 38 -c 2 -a 0 -i 0 -k MAC 
- -t 1.125315289 -s 8 -d -1 -p ACK -e 38 -c 2 -a 0 -i 0 -k MAC
h -t 1.125315289 -s 8 -d -1 -p ACK -e 38 -c 2 -a 0 -i 0 -k MAC
+ -t 1.125330289 -s 8 -d 7 -p DSR -e 76 -c 2 -a 0 -i 4 -k RTR 
- -t 1.125330289 -s 8 -d 7 -p DSR -e 76 -c 2 -a 0 -i 4 -k RTR
h -t 1.125330289 -s 8 -d 7 -p DSR -e 76 -c 2 -a 0 -i 4 -k RTR
r -t 1.125619857 -s 3 -d -1 -p ACK -e 38 -c 2 -a 0 -i 0 -k MAC
+ -t 1.125689289 -s 8 -d -1 -p RTS -e 44 -c 2 -a 0 -i 0 -k MAC 
- -t 1.125689289 -s 8 -d -1 -p RTS -e 44 -c 2 -a 0 -i 0 -k MAC
h -t 1.125689289 -s 8 -d -1 -p RTS -e 44 -c 2 -a 0 -i 0 -k MAC
r -t 1.126041857 -s 3 -d -1 -p RTS -e 44 -c 2 -a 0 -i 0 -k MAC
+ -t 1.126051857 -s 3 -d -1 -p CTS -e 38 -c 2 -a 0 -i 0 -k MAC 
- -t 1.126051857 -s 3 -d -1 -p CTS -e 38 -c 2 -a 0 -i 0 -k MAC
h -t 1.126051857 -s 3 -d -1 -p CTS -e 38 -c 2 -a 0 -i 0 -k MAC
r -t 1.126356426 -s 8 -d -1 -p CTS -e 38 -c 2 -a 0 -i 0 -k MAC
+ -t 1.126366426 -s 8 -d -1 -p ARP -e 86 -c 2 -a 0 -i 0 -k MAC 
- -t 1.126366426 -s 8 -d -1 -p ARP -e 86 -c 2 -a 0 -i 0 -k MAC
h -t 1.126366426 -s 8 -d -1 -p ARP -e 86 -c 2 -a 0 -i 0 -k MAC
r -t 1.127054994 -s 3 -d -1 -p ARP -e 28 -c 2 -a 0 -i 0 -k MAC
+ -t 1.127064994 -s 3 -d -1 -p ACK -e 38 -c 2 -a 0 -i 0 -k MAC 
- -t 1.127064994 -s 3 -d -1 -p ACK -e 38 -c 2 -a 0 -i 0 -k MAC
h -t 1.127064994 -s 3 -d -1 -p ACK -e 38 -c 2 -a 0 -i 0 -k MAC
r -t 1.127369562 -s 8 -d -1 -p ACK -e 38 -c 2 -a 0 -i 0 -k MAC
+ -t 1.127509362 -s 11 -d -1 -p ARP -e 86 -c 2 -a 0 -i 0 -k MAC 
- -t 1.127509362 -s 11 -d -1 -p ARP -e 86 -c 2 -a 0 -i 0 -k MAC
h -t 1.127509362 -s 11 -d -1 -p ARP -e 86 -c 2 -a 0 -i 0 -k MAC
r -t 1.128197863 -s 10 -d -1 -p ARP -e 28 -c 2 -a 0 -i 0 -k MAC
r -t 1.128197865 -s 12 -d -1 -p ARP -e 28 -c 2 -a 0 -i 0 -k MAC
r -t 1.128198087 -s 3 -d -1 -p ARP -e 28 -c 2 -a 0 -i 0 -k MAC
+ -t 1.128352865 -s 12 -d -1 -p RTS -e 44 -c 2 -a 0 -i 0 -k MAC 
- -t 1.128352865 -s 12 -d -1 -p RTS -e 44 -c 2 -a 0 -i 0 -k MAC
h -t 1.128352865 -s 12 -d -1 -p RTS -e 44 -c 2 -a 0 -i 0 -k MAC
r -t 1.128705367 -s 11 -d -1 -p RTS -e 44 -c 2 -a 0 -i 0 -k MAC
+ -t 1.128715367 -s 11 -d -1 -p CTS -e 38 -c 2 -a 0 -i 0 -k MAC 
- -t 1.128715367 -s 11 -d -1 -p CTS -e 38 -c 2 -a 0 -i 0 -k MAC
h -t 1.128715367 -s 11 -d -1 -p CTS -e 38 -c 2 -a 0 -i 0 -k MAC
r -t 1.129019870 -s 12 -d -1 -p CTS -e 38 -c 2 -a 0 -i 0 -k MAC
+ -t 1.129029870 -s 12 -d -1 -p ARP -e 86 -c 2 -a 0 -i 0 -k MAC 
- -t 1.129029870 -s 12 -d -1 -p ARP -e 86 -c 2 -a 0 -i 0 -k MAC
h -t 1.129029870 -s 12 -d -1 -p ARP -e 86 -c 2 -a 0 -i 0 -k MAC
r -t 1.129718373 -s 11 -d -1 -p ARP -e 28 -c 2 -a 0 -i 0 -k MAC
+ -t 1.129728373 -s 11 -d -1 -p ACK -e 38 -c 2 -a 0 -i 0 -k MAC 
- -t 1.129728373 -s 11 -d -1 -p ACK -e 38 -c 2 -a 0 -i 0 -k MAC
h -t 1.129728373 -s 11 -d -1 -p ACK -e 38 -c 2 -a 0 -i 0 -k MAC
r -t 1.130032876 -s 12 -d -1 -p ACK -e 38 -c 2 -a 0 -i 0 -k MAC
+ -t 1.130562373 -s 11 -d -1 -p RTS -e 44 -c 2 -a 0 -i 0 -k MAC 
- -t 1.130562373 -s 11 -d -1 -p RTS -e 44 -c 2 -a 0 -i 0 -k MAC
h -t 1.130562373 -s 11 -d -1 -p RTS -e 44 -c 2 -a 0 -i 0 -k MAC
r -t 1.130914876 -s 12 -d -1 -p RTS -e 44 -c 2 -a 0 -i 0 -k MAC
+ -t 1.130924876 -s 12 -d -1 -p CTS -e 38 -c 2 -a 0 -i 0 -k MAC 
- -t 1.130924876 -s 12 -d -1 -p CTS -e 38 -c 2 -a 0 -i 0 -k MAC
h -t 1.130924876 -s 12 -d -1 -p CTS -e 38 -c 2 -a 0 -i 0 -k MAC
r -t 1.131229379 -s 11 -d -1 -p CTS -e 38 -c 2 -a 0 -i 0 -k MAC
+ -t 1.131239379 -s 11 -d 12 -p DSR -e 142 -c 2 -a 0 -i 7 -k MAC 
- -t 1.131239379 -s 11 -d 12 -p DSR -e 142 -c 2 -a 0 -i 7 -k MAC
h -t 1.131239379 -s 11 -d 12 -p DSR -e 142 -c 2 -a 0 -i 7 -k MAC
r -t 1.132375882 -s 12 -d 12 -p DSR -e 84 -c 2 -a 0 -i 7 -k MAC
+ -t 1.132385882 -s 12 -d -1 -p ACK -e 38 -c 2 -a 0 -i 0 -k MAC 
- -t 1.132385882 -s 12 -d -1 -p ACK -e 38 -c 2 -a 0 -i 0 -k MAC
h -t 1.132385882 -s 12 -d -1 -p ACK -e 38 -c 2 -a 0 -i 0 -k MAC
+ -t 1.132400882 -s 12 -d 3 -p DSR -e 84 -c 2 -a 0 -i 7 -k RTR 
- -t 1.132400882 -s 12 -d 3 -p DSR -e 84 -c 2 -a 0 -i 7 -k RTR
h -t 1.132400882 -s 12 -d 3 -p DSR -e 84 -c 2 -a 0 -i 7 -k RTR
r -t 1.132690384 -s 11 -d -1 -p ACK -e 38 -c 2 -a 0 -i 0 -k MAC
+ -t 1.132959882 -s 12 -d -1 -p RTS -e 44 -c 2 -a 0 -i 0 -k MAC 
- -t 1.132959882 -s 12 -d -1 -p RTS -e 44 -c 2 -a 0 -i 0 -k MAC
h -t 1.132959882 -s 12 -d -1 -p RTS -e 44 -c 2 -a 0 -i 0 -k MAC
r -t 1.133312584 -s 3 -d -1 -p RTS -e 44 -c 2 -a 0 -i 0 -k MAC
+ -t 1.133322584 -s 3 -d -1 -p CTS -e 38 -c 2 -a 0 -i 0 -k MAC 
- -t 1.133322584 -s 3 -d -1 -p CTS -e 38 -c 2 -a 0 -i 0 -k MAC
h -t 1.133322584 -s 3 -d -1 -p CTS -e 38 -c 2 -a 0 -i 0 -k MAC
r -t 1.133627286 -s 12 -d -1 -p CTS -e 38 -c 2 -a 0 -i 0 -k MAC
+ -t 1.133637286 -s 12 -d 3 -p DSR -e 142 -c 2 -a 0 -i 7 -k MAC 
- -t 1.133637286 -s 12 -d 3 -p DSR -e 142 -c 2 -a 0 -i 7 -k MAC
h -t 1.133637286 -s 12 -d 3 -p DSR -e 142 -c 2 -a 0 -i 7 -k MAC
r -t 1.134773988 -s 3 -d 3 -p DSR -e 84 -c 2 -a 0 -i 7 -k MAC
+ -t 1.134783988 -s 3 -d -1 -p ACK -e 38 -c 2 -a 0 -i 0 -k MAC 
- -t 1.134783988 -s 3 -d -1 -p ACK -e 38 -c 2 -a 0 -i 0 -k MAC
h -t 1.134783988 -s 3 -d -1 -p ACK -e 38 -c 2 -a 0 -i 0 -k MAC
+ -t 1.134798988 -s 3 -d 8 -p DSR -e 84 -c 2 -a 0 -i 7 -k RTR 
- -t 1.134798988 -s 3 -d 8 -p DSR -e 84 -c 2 -a 0 -i 7 -k RTR
h -t 1.134798988 -s 3 -d 8 -p DSR -e 84 -c 2 -a 0 -i 7 -k RTR
r -t 1.135088690 -s 12 -d -1 -p ACK -e 38 -c 2 -a 0 -i 0 -k MAC
+ -t 1.135288453 -s 8 -d -1 -p RTS -e 44 -c 2 -a 0 -i 0 -k MAC 
- -t 1.135288453 -s 8 -d -1 -p RTS -e 44 -c 2 -a 0 -i 0 -k MAC
h -t 1.135288453 -s 8 -d -1 -p RTS -e 44 -c 2 -a 0 -i 0 -k MAC
r -t 1.135641176 -s 7 -d -1 -p RTS -e 44 -c 2 -a 0 -i 0 -k MAC